
Running Job 1 of 1 QfuncsB3PW91-VI-2nd.in
qchem QfuncsB3PW91-VI-2nd.in_117805.0 /scratch/scaparas/job_3584428/qchem117805/ 0
/cm/shared/apps/spack/cpu/opt/spack/linux-centos8-zen2/gcc-10.2.0/qchem-5.3-5qddma6gy34jvefiv7mbcb7qm253n45r/exe/qcprog.exe_s QfuncsB3PW91-VI-2nd.in_117805.0 /scratch/scaparas/job_3584428/qchem117805/
                  Welcome to Q-Chem
     A Quantum Leap Into The Future Of Chemistry


 Q-Chem 5.3, Q-Chem, Inc., Pleasanton, CA (2020)

 License issued to: University of California, San Diego (site)

 Yihan Shao,  Zhengting Gan,  E. Epifanovsky,  A. T. B. Gilbert,  M. Wormit,  
 J. Kussmann,  A. W. Lange,  A. Behn,  Jia Deng,  Xintian Feng,  D. Ghosh,  
 M. Goldey,  P. R. Horn,  L. D. Jacobson,  I. Kaliman,  T. Kus,  A. Landau,  
 Jie Liu,  E. I. Proynov,  R. M. Richard,  R. P. Steele,  E. J. Sundstrom,  
 H. L. Woodcock III,  P. M. Zimmerman,  D. Zuev,  B. Alam,  B. Albrecht,  
 A. Aldossary,  E. Alguire,  S. A. Baeppler,  D. Barton,  Z. Benda,  
 Y. A. Bernard,  E. J. Berquist,  K. B. Bravaya,  H. Burton,  K. Carter-Fenk,  
 D. Casanova,  Chun-Min Chang,  Yunqing Chen,  A. Chien,  K. D. Closser,  
 M. P. Coons,  S. Coriani,  S. Dasgupta,  A. L. Dempwolff,  M. Diedenhofen,  
 Hainam Do,  R. G. Edgar,  Po-Tung Fang,  S. Faraji,  S. Fatehi,  
 Qingguo Feng,  J. Fosso-Tande,  J. Gayvert,  Qinghui Ge,  A. Ghysels,  
 G. Gidofalvi,  J. Gomes,  J. Gonthier,  S. Gulania,  A. Gunina,  D. Hait,  
 M. W. D. Hanson-Heine,  S. Hammes-Schiffer,  P. H. P. Harbach,  
 A. W. Hauser,  M. F. Herbst,  J. E. Herr,  E. G. Hohenstein,  Z. C. Holden,  
 S. Houck,  Kerwin Hui,  B. C. Huynh,  M. Ivanov,  T.-C. Jagau,  Hyunjun Ji,  
 B. Kaduk,  K. Khistyaev,  Jaehoon Kim,  P. Klunzinger,  K. Koh,  
 D. Kosenkov,  L. Koulias,  T. Kowalczyk,  C. M. Krauter,  A. Kunitsa,  
 Ka Un Lao,  A. Laurent,  K. V. Lawler,  Joonho Lee,  D. Lefrancois,  
 S. Lehtola,  D. S. Levine,  Yi-Pei Li,  You-Sheng Lin,  Fenglai Liu,  
 Kuan-Yu Liu,  E. Livshits,  M. Loipersberger,  A. Luenser,  P. Manohar,  
 E. Mansoor,  S. F. Manzer,  Shan-Ping Mao,  Yuezhi Mao,  N. Mardirossian,  
 A. V. Marenich,  T. Markovich,  L. A. Martinez-Martinez,  S. A. Maurer,  
 N. J. Mayhall,  S. C. McKenzie,  J.-M. Mewes,  P. Morgante,  A. F. Morrison,  
 J. W. Mullinax,  K. Nanda,  T. S. Nguyen-Beck,  R. Olivares-Amaya,  
 K. J. Oosterbaan,  J. A. Parkhill,  S. K. Paul,  F. Pavosevic,  Zheng Pei,  
 T. M. Perrine,  F. Plasser,  P. Pokhilko,  S. Prager,  A. Prociuk,  
 E. Ramos,  B. Rana,  D. R. Rehn,  F. Rob,  E. Rossomme,  M. Scheurer,  
 M. Schneider,  N. Sergueev,  S. M. Sharada,  S. Sharma,  W. Skomorowski,  
 D. W. Small,  T. Stauch,  C. J. Stein,  T. Stein,  Yu-Chuan Su,  
 S. P. Veccham,  Zhen Tao,  A. J. W. Thom,  A. Tkatchenko,  T. Tsuchimochi,  
 N. M. Tubman,  L. Vogt,  M. L. Vidal,  O. Vydrov,  M. A. Watson,  J. Wenzel,  
 M. de Wergifosse,  T. A. Wesolowski,  A. White,  J. Witte,  A. Yamada,  
 Jun Yang,  K. Yao,  S. Yeganeh,  S. R. Yost,  Zhi-Qiang You,  A. Zech,  
 Igor Ying Zhang,  Xing Zhang,  Yan Zhao,  Ying Zhu,  B. R. Brooks,  
 G. K. L. Chan,  C. J. Cramer,  M. S. Gordon,  W. J. Hehre,  A. Klamt,  
 M. W. Schmidt,  C. D. Sherrill,  D. G. Truhlar,  A. Aspuru-Guzik,  R. Baer,  
 A. T. Bell,  N. A. Besley,  Jeng-Da Chai,  A. E. DePrince, III,  
 R. A. DiStasio Jr.,  A. Dreuw,  B. D. Dunietz,  T. R. Furlani,  
 Chao-Ping Hsu,  Yousung Jung,  Jing Kong,  D. S. Lambrecht,  WanZhen Liang,  
 C. Ochsenfeld,  V. A. Rassolov,  L. V. Slipchenko,  J. E. Subotnik,  
 T. Van Voorhis,  J. M. Herbert,  A. I. Krylov,  P. M. W. Gill,  M. Head-Gordon

 Contributors to earlier versions of Q-Chem not listed above: 
 R. D. Adamson,  B. Austin,  J. Baker,  G. J. O. Beran,  K. Brandhorst,  
 S. T. Brown,  E. F. C. Byrd,  A. K. Chakraborty,  C.-L. Cheng,  
 Siu Hung Chien,  D. M. Chipman,  D. L. Crittenden,  H. Dachsel,  
 R. J. Doerksen,  A. D. Dutoi,  L. Fusti-Molnar,  W. A. Goddard III,  
 A. Golubeva-Zadorozhnaya,  S. R. Gwaltney,  G. Hawkins,  A. Heyden,  
 S. Hirata,  G. Kedziora,  F. J. Keil,  C. Kelley,  Jihan Kim,  R. A. King,  
 R. Z. Khaliullin,  P. P. Korambath,  W. Kurlancheek,  A. M. Lee,  M. S. Lee,  
 S. V. Levchenko,  Ching Yeh Lin,  D. Liotard,  R. C. Lochan,  I. Lotan,  
 P. E. Maslen,  N. Nair,  D. P. O'Neill,  D. Neuhauser,  E. Neuscamman,  
 C. M. Oana,  R. Olson,  B. Peters,  R. Peverati,  P. A. Pieniazek,  
 Y. M. Rhee,  J. Ritchie,  M. A. Rohrdanz,  E. Rosta,  N. J. Russ,  
 H. F. Schaefer III,  N. E. Schultz,  N. Shenvi,  A. C. Simmonett,  A. Sodt,  
 D. Stuck,  K. S. Thanthiriwatte,  V. Vanovschi,  Tao Wang,  A. Warshel,  
 C. F. Williams,  Q. Wu,  X. Xu,  W. Zhang

 Please cite Q-Chem as follows:
 Y. Shao et al., Mol. Phys. 113, 184-215 (2015)
 DOI: 10.1080/00268976.2014.952696

 Q-Chem 5.3.1 for Intel X86 EM64T Linux

 Parts of Q-Chem use Armadillo 9.800.1 (Horizon Scraper).
 http://arma.sourceforge.net/

 Q-Chem begins on Wed Jun 23 13:24:31 2021  

Host: 
0

     Scratch files written to /scratch/scaparas/job_3584428/qchem117805//
 Aug2920 |scratch|qcdevops|jenkins|workspace|build_RNUM    
Processing $rem in /cm/shared/apps/spack/cpu/opt/spack/linux-centos8-zen2/gcc-10.2.0/qchem-5.3-5qddma6gy34jvefiv7mbcb7qm253n45r/config/preferences:
Processing $rem in /home/scaparas/.qchemrc:

Checking the input file for inconsistencies... 	...done.

--------------------------------------------------------------
User input:
--------------------------------------------------------------
$molecule
0 1
C   -2.1510630    0.6892080    0.0000880
C   -2.1279270   -0.7158180    0.0000750
C   -0.9322970   -1.4131000   -0.0000110
C    0.2469110   -0.6702010   -0.0000420
C    0.2481930    0.7482990    0.0000000
C   -0.9794740    1.4235260    0.0000320
N    1.5617740   -1.0775920   -0.0002850
C    1.6201330    1.1629000   -0.0001570
C    2.3820130    0.0308060    0.0002480
H    1.8763150   -2.0300110    0.0004380
H    1.9921730    2.1730100   -0.0003480
H    3.4525490   -0.0824250    0.0004080
H   -3.0615940   -1.2620200    0.0000880
H   -0.9172520   -2.4953420   -0.0000730
H   -3.1042030    1.2007850    0.0000900
H   -1.0093480    2.5054210   -0.0000150
$end

$rem
BASIS  =  6-31+G*
GUI  =  2
JOB_TYPE  =  Optimization
METHOD  = B3PW91
SCF_CONVERGENCE  =  8
THRESH = 12
CIS_N_ROOTS  = 3
CIS_SINGLETS = true
CIS_TRIPLETS = false
CIS_STATE_DERIV = 2
MEM_STATIC=500
MEM_TOTAL=3000
$end
--------------------------------------------------------------
 ----------------------------------------------------------------
             Standard Nuclear Orientation (Angstroms)
    I     Atom           X                Y                Z
 ----------------------------------------------------------------
    1      C       2.1510629040    -0.6892079969     0.0000583065
    2      C       2.1279268385     0.7158180020     0.0000481775
    3      C       0.9322968051     1.4130999466    -0.0000206639
    4      C      -0.2469111607     0.6702008918    -0.0000373513
    5      C      -0.2481930942    -0.7482991083     0.0000020775
    6      C       0.9794739374    -1.4235260513     0.0000165335
    7      N      -1.5617741827     1.0775918311    -0.0002621374
    8      C      -1.6201330769    -1.1629001718    -0.0001374500
    9      C      -2.3820131241    -0.0308062080     0.0002797387
   10      H      -1.8763152174     2.0300108152     0.0004667797
   11      H      -1.9921730325    -2.1730101887    -0.0003253498
   12      H      -3.4525491271     0.0824247420     0.0004541695
   13      H       3.0615938132     1.2620200454     0.0000497686
   14      H       0.9172517540     2.4953419460    -0.0000804893
   15      H       3.1042029277    -1.2007849526     0.0000467087
   16      H       1.0093479871    -2.5054210498    -0.0000328375
 ----------------------------------------------------------------
 Molecular Point Group                 C1    NOp =  1
 Largest Abelian Subgroup              C1    NOp =  1
 Nuclear Repulsion Energy =         401.33686680 hartrees
 There are       31 alpha and       31 beta electrons
 Requested basis set is 6-31+G(d)
 There are 59 shells and 185 basis functions

 Total QAlloc Memory Limit   3000 MB
 Mega-Array Size       489 MB
 MEM_STATIC part       500 MB
 A cutoff of  1.0D-12 yielded   1657 shell pairs
 There are     17105 function pairs
 Smallest overlap matrix eigenvalue = 1.26E-06

 Scale SEOQF with 1.000000e-01/1.000000e-01/1.000000e-01

 Standard Electronic Orientation quadrupole field applied
 Nucleus-field energy     =     0.0000000117 hartrees
 Guess from superposition of atomic densities
 Warning:  Energy on first SCF cycle will be non-variational
 SAD guess density has 62.000000 electrons

 -----------------------------------------------------------------------
  General SCF calculation program by
  Eric Jon Sundstrom, Paul Horn, Yuezhi Mao, Dmitri Zuev, Alec White,
  David Stuck, Shaama M.S., Shane Yost, Joonho Lee, David Small,
  Daniel Levine, Susi Lehtola, Hugh Burton, Evgeny Epifanovsky,
  Bang C. Huynh
 -----------------------------------------------------------------------
 Exchange:     0.2000 Hartree-Fock + 0.0800 Slater + 0.7200 B88
 Correlation:  0.1900 PW92 + 0.8100 PW91
 Using SG-1 standard quadrature grid
 using 4 threads for integral computing
 -------------------------------------------------------
 OpenMP Integral computing Module                
 Release: version 1.0, May 2013, Q-Chem Inc. Pittsburgh 
 -------------------------------------------------------
 A restricted SCF calculation will be
 performed using DIIS
 SCF converges when DIIS error is below 1.0e-08
 ---------------------------------------
  Cycle       Energy         DIIS error
 ---------------------------------------
    1    -366.0658445251      5.55e-02  
    2    -363.5688122962      4.99e-03  
    3    -363.5237659352      5.87e-03  
    4    -363.6827732806      1.47e-03  
    5    -363.6919449186      3.84e-04  
    6    -363.6925444432      1.17e-04  
    7    -363.6925957808      4.69e-05  
    8    -363.6926054009      9.84e-06  
    9    -363.6926058037      1.76e-06  
   10    -363.6926058157      7.91e-07  
   11    -363.6926058183      2.10e-07  
   12    -363.6926058185      8.32e-08  
   13    -363.6926058185      1.77e-08  
   14    -363.6926058185      6.69e-09  Convergence criterion met
 ---------------------------------------
 SCF time:   CPU 40.35s  wall 15.00s 
 SCF   energy in the final basis set =     -363.6926058185
 Total energy in the final basis set =     -363.6926058185
 
 Direct TDDFT/TDA calculation will be performed
 Exchange:     0.2000 Hartree-Fock + 0.0800 Slater + 0.7200 B88
 Correlation:  0.1900 PW92 + 0.8100 PW91
 Using SG-1 standard quadrature grid
 Singlet excitation energies requested
 CIS energy converged when residual is below 10e- 6
 ---------------------------------------------------
 Iter    Rts Conv    Rts Left    Ttl Dev     Max Dev
 ---------------------------------------------------
   1         0           3      0.003734    0.001845
   2         0           3      0.001970    0.001226
   3         0           3      0.000544    0.000384
   4         0           3      0.000186    0.000133
   5         0           3      0.000058    0.000041
   6         1           2      0.000015    0.000011
   7         1           2      0.000005    0.000004
   8         2           1      0.000002    0.000001
   9         3           0      0.000001    0.000000    Roots Converged
 ---------------------------------------------------
 
 ---------------------------------------------------
         TDDFT/TDA Excitation Energies              
 ---------------------------------------------------

 Excited state   1: excitation energy (eV) =    4.9586
 Total energy for state  1:                  -363.51038216 au
    Multiplicity: Singlet
    Trans. Mom.:  0.4189 X  -0.6538 Y  -0.0001 Z
    Strength   :     0.0732448807
    D(   30) --> V(    1) amplitude = -0.3610
    D(   30) --> V(    3) amplitude = -0.2408
    D(   31) --> V(    1) amplitude =  0.8412

 Excited state   2: excitation energy (eV) =    5.0199
 Total energy for state  2:                  -363.50812779 au
    Multiplicity: Singlet
    Trans. Mom.:  0.5908 X  -0.0572 Y  -0.0002 Z
    Strength   :     0.0433293302
    D(   30) --> V(    1) amplitude =  0.6918
    D(   31) --> V(    1) amplitude =  0.3481
    D(   31) --> V(    3) amplitude =  0.6065

 Excited state   3: excitation energy (eV) =    5.1886
 Total energy for state  3:                  -363.50192984 au
    Multiplicity: Singlet
    Trans. Mom.:  0.0009 X  -0.0006 Y   0.1270 Z
    Strength   :     0.0020505277
    D(   31) --> V(    2) amplitude =  0.9953
 
 ---------------------------------------------------
 Calculating Relaxed Density
 ---------------------------------------------------
 Iter    Rts Conv    Rts Left    Ttl Dev     Max Dev
 ---------------------------------------------------
   1         0           3      0.001492    0.000721
   2         0           3      0.000549    0.000216
   3         0           3      0.000130    0.000052
   4         0           3      0.000036    0.000018
   5         0           3      0.000008    0.000003
   6         3           0      0.000000    0.000000    Roots Converged
 ---------------------------------------------------
  SETman timing summary (seconds)
  CPU time               117.21s
  System time              0.00s
  Wall time               37.03s
 
 --------------------------------------------------------------
 
                    Orbital Energies (a.u.)
 --------------------------------------------------------------
 
 Alpha MOs
 -- Occupied --
-14.3776 -10.2116 -10.2096 -10.1795 -10.1755 -10.1741 -10.1740 -10.1691
-10.1669  -0.9922  -0.8479  -0.7910  -0.7432  -0.7248  -0.6316  -0.6022
 -0.5885  -0.5468  -0.4889  -0.4766  -0.4429  -0.4343  -0.4284  -0.4161
 -0.3966  -0.3594  -0.3404  -0.3390  -0.2848  -0.2290  -0.2121
 -- Virtual --
 -0.0182   0.0075   0.0181   0.0259   0.0321   0.0471   0.0480   0.0483
  0.0691   0.0709   0.0757   0.0763   0.0960   0.0988   0.1164   0.1169
  0.1210   0.1355   0.1450   0.1479   0.1624   0.1683   0.1742   0.1748
  0.1783   0.1854   0.1946   0.1974   0.2043   0.2056   0.2079   0.2093
  0.2256   0.2315   0.2380   0.2444   0.2449   0.2519   0.2626   0.2671
  0.2780   0.2798   0.2842   0.3022   0.3065   0.3143   0.3229   0.3381
  0.3566   0.3706   0.3824   0.4032   0.4362   0.4533   0.5170   0.5832
  0.6279   0.6772   0.6792   0.7023   0.7197   0.7239   0.7337   0.7396
  0.7452   0.7558   0.7604   0.7806   0.7949   0.8033   0.8183   0.8562
  0.8968   0.9040   0.9157   0.9390   0.9459   0.9554   0.9619   0.9866
  1.0050   1.0334   1.0505   1.0675   1.0971   1.1154   1.1183   1.1727
  1.1810   1.2066   1.2267   1.2328   1.2535   1.3184   1.3189   1.3388
  1.3695   1.4123   1.4184   1.4524   1.4579   1.4650   1.4958   1.5014
  1.5399   1.5898   1.6505   1.7872   1.8447   1.8836   1.8913   1.9220
  1.9431   1.9948   1.9979   2.0048   2.0636   2.1001   2.1426   2.1729
  2.1737   2.1989   2.2488   2.2607   2.2658   2.2869   2.3155   2.3814
  2.4093   2.4476   2.5497   2.5593   2.6387   2.6604   2.6712   2.7014
  2.7379   2.8116   2.8491   2.8597   2.9574   2.9823   3.1151   3.2451
  3.4511   4.1547   4.2657   4.2955   4.3304   4.3661   4.4017   4.4851
  4.5243   4.7945
 --------------------------------------------------------------
 
          Ground-State Mulliken Net Atomic Charges

     Atom                 Charge (a.u.)
  ----------------------------------------
      1 C                     0.014099
      2 C                    -0.523729
      3 C                    -0.102105
      4 C                    -1.144897
      5 C                     1.550436
      6 C                    -0.792364
      7 N                    -0.448629
      8 C                     0.040131
      9 C                    -0.220965
     10 H                     0.425224
     11 H                     0.208167
     12 H                     0.207692
     13 H                     0.195692
     14 H                     0.195487
     15 H                     0.194180
     16 H                     0.201581
  ----------------------------------------
  Sum of atomic charges =     0.000000

 -----------------------------------------------------------------
                    Cartesian Multipole Moments
 -----------------------------------------------------------------
    Charge (ESU x 10^10)
                -0.0000
    Dipole Moment (Debye)
         X      -1.5173      Y       1.5656      Z       0.0010
       Tot       2.1802
    Quadrupole Moments (Debye-Ang)
        XX     -44.7503     XY      -3.1785     YY     -43.8837
        XZ      -0.0032     YZ       0.0032     ZZ     -58.3404
    Octopole Moments (Debye-Ang^2)
       XXX     -14.4923    XXY       8.1744    XYY      -7.9961
       YYY      10.3966    XXZ       0.0074    XYZ      -0.0066
       YYZ       0.0021    XZZ      -1.9726    YZZ       1.9661
       ZZZ      -0.0009
    Hexadecapole Moments (Debye-Ang^3)
      XXXX    -802.0354   XXXY     -21.4723   XXYY    -192.8893
      XYYY     -19.5191   YYYY    -362.7765   XXXZ      -0.0236
      XXYZ       0.0129   XYYZ      -0.0071   YYYZ       0.0140
      XXZZ    -186.3416   XYZZ      -3.8535   YYZZ     -91.9728
      XZZZ      -0.0010   YZZZ       0.0028   ZZZZ     -70.4445
 -----------------------------------------------------------------
 Calculating analytic gradient of the CIS energy
 CIS relaxed dipole moment
            1
    1  -1.0752384
    2   0.5824792
    3  -0.0000877
	Magnitude:	 1.223 au	 3.108 Debye
 CIS 2 State Energy is -363.5081277870
 Gradient of the state energy (including CIS Excitation Energy)
            1           2           3           4           5           6
    1  -0.0276271  -0.0151303   0.0047736   0.0085637   0.0158595   0.0185219
    2   0.0005902  -0.0049533  -0.0293289  -0.0038863   0.0201195   0.0310794
    3   0.0000016  -0.0000012  -0.0000032   0.0000119   0.0000210  -0.0000025
            7           8           9          10          11          12
    1   0.0094188  -0.0322008   0.0159374   0.0021734   0.0014181   0.0041057
    2   0.0016484   0.0150547  -0.0282678  -0.0042615   0.0038776  -0.0006277
    3  -0.0000287  -0.0000280   0.0000452  -0.0000115  -0.0000065   0.0000002
           13          14          15          16
    1  -0.0030166  -0.0000535  -0.0031018   0.0003579
    2  -0.0020616  -0.0032903   0.0012101   0.0030975
    3  -0.0000002   0.0000025   0.0000002  -0.0000006
 Gradient time:  CPU 21.63 s  wall 5.43 s
 Geometry Optimization Parameters
   NAtoms,    NIC,     NZ,  NCons,   NDum,   NFix, NCnnct, MaxDiis
       16     116       0       0       0       0       0       0


** GEOMETRY OPTIMIZATION IN DELOCALIZED INTERNAL COORDINATES **
   Searching for a Minimum

   Optimization Cycle:   1

                       Coordinates (Angstroms)
     ATOM                X               Y               Z
      1  C         2.1510629040   -0.6892079969    0.0000583065
      2  C         2.1279268385    0.7158180020    0.0000481775
      3  C         0.9322968051    1.4130999466   -0.0000206639
      4  C        -0.2469111607    0.6702008918   -0.0000373513
      5  C        -0.2481930942   -0.7482991083    0.0000020775
      6  C         0.9794739374   -1.4235260513    0.0000165335
      7  N        -1.5617741827    1.0775918311   -0.0002621374
      8  C        -1.6201330769   -1.1629001718   -0.0001374500
      9  C        -2.3820131241   -0.0308062080    0.0002797387
     10  H        -1.8763152174    2.0300108152    0.0004667797
     11  H        -1.9921730325   -2.1730101887   -0.0003253498
     12  H        -3.4525491271    0.0824247420    0.0004541695
     13  H         3.0615938132    1.2620200454    0.0000497686
     14  H         0.9172517540    2.4953419460   -0.0000804893
     15  H         3.1042029277   -1.2007849526    0.0000467087
     16  H         1.0093479871   -2.5054210498   -0.0000328375
   Point Group: c1    Number of degrees of freedom:    42


   Energy is   -363.508127787


 Attempting to generate delocalized internal coordinates
 Initial Hessian constructed with Jon Baker's OPTIMIZE code

 42 Hessian modes will be used to form the next step
  Hessian Eigenvalues:
     0.018594    0.019738    0.020011    0.020794    0.021683    0.022200
     0.022636    0.023004    0.023236    0.023608    0.023851    0.023984
     0.024127    0.160000    0.160000    0.160000    0.160000    0.160000
     0.160000    0.160000    0.220000    0.221879    0.226618    0.240111
     0.246509    0.357123    0.357170    0.357835    0.357899    0.364196
     0.364272    0.370088    0.384319    0.426334    0.434649    0.457693
     0.466917    0.471622    0.474685    0.475669    0.481247    0.509555

 Minimum search - taking simple RFO step
 Searching for Lamda that Minimizes Along All modes
 Value Taken    Lamda =  -0.01187632
 Step Taken.  Stepsize is  0.162590

                             Maximum     Tolerance    Cnvgd?
         Gradient           0.040929      0.000300      NO
         Displacement       0.094555      0.001200      NO
         Energy change     *********      0.000001      NO


 New Cartesian Coordinates Obtained by Inverse Iteration

 Displacement from previous Coordinates is:  0.237064
 ----------------------------------------------------------------
             Standard Nuclear Orientation (Angstroms)
    I     Atom           X                Y                Z
 ----------------------------------------------------------------
    1      C       2.1786161918    -0.7057976513    -0.0000072709
    2      C       2.1448114823     0.7269603482     0.0000027797
    3      C       0.9310483803     1.4478854384     0.0000106177
    4      C      -0.2579878684     0.6771593956    -0.0000116014
    5      C      -0.2504334587    -0.7718699143     0.0000074292
    6      C       0.9817859790    -1.4726875736     0.0000214866
    7      N      -1.5836573696     1.0904684781    -0.0001223366
    8      C      -1.6133001980    -1.1683131655     0.0000048322
    9      C      -2.4020110277    -0.0147209692     0.0000046479
   10      H      -1.9026806785     2.0468515455     0.0007353047
   11      H      -1.9888377190    -2.1833242323    -0.0000529213
   12      H      -3.4786221201     0.0965455627     0.0000291721
   13      H       3.0823797197     1.2768224946    -0.0000220134
   14      H       0.9138986403     2.5348141750    -0.0000324513
   15      H       3.1414903271    -1.2091044977    -0.0000506201
   16      H       1.0065946707    -2.5591369414     0.0000089258
 ----------------------------------------------------------------
 Molecular Point Group                 C1    NOp =  1
 Largest Abelian Subgroup              C1    NOp =  1
 Nuclear Repulsion Energy =         396.49852978 hartrees
 There are       31 alpha and       31 beta electrons
 Applying Cartesian multipole field
    Component          Value
    ---------          -----
     (2,0,0)        1.00000E-11
     (0,2,0)        2.00000E-11
     (0,0,2)       -3.00000E-11
 Nucleus-field energy     =     0.0000000120 hartrees
 Requested basis set is 6-31+G(d)
 There are 59 shells and 185 basis functions
 A cutoff of  1.0D-12 yielded   1656 shell pairs
 There are     17099 function pairs
 Smallest overlap matrix eigenvalue = 1.45E-06
 Guess MOs from SCF MO coefficient file

 -----------------------------------------------------------------------
  General SCF calculation program by
  Eric Jon Sundstrom, Paul Horn, Yuezhi Mao, Dmitri Zuev, Alec White,
  David Stuck, Shaama M.S., Shane Yost, Joonho Lee, David Small,
  Daniel Levine, Susi Lehtola, Hugh Burton, Evgeny Epifanovsky,
  Bang C. Huynh
 -----------------------------------------------------------------------
 Exchange:     0.2000 Hartree-Fock + 0.0800 Slater + 0.7200 B88
 Correlation:  0.1900 PW92 + 0.8100 PW91
 Using SG-1 standard quadrature grid
 using 4 threads for integral computing
 -------------------------------------------------------
 OpenMP Integral computing Module                
 Release: version 1.0, May 2013, Q-Chem Inc. Pittsburgh 
 -------------------------------------------------------
 A restricted SCF calculation will be
 performed using DIIS
 SCF converges when DIIS error is below 1.0e-08
 ---------------------------------------
  Cycle       Energy         DIIS error
 ---------------------------------------
    1    -363.6850682919      8.85e-04  
    2    -363.6884415643      2.80e-04  
    3    -363.6884978574      2.56e-04  
    4    -363.6887675008      7.16e-05  
    5    -363.6887897425      1.64e-05  
    6    -363.6887907817      8.09e-06  
    7    -363.6887910931      1.09e-06  
    8    -363.6887910961      7.56e-07  
    9    -363.6887910988      1.45e-07  
   10    -363.6887910989      8.43e-08  
   11    -363.6887910989      1.36e-08  
   12    -363.6887910989      5.46e-09  Convergence criterion met
 ---------------------------------------
 SCF time:   CPU 35.07s  wall 8.00s 
 SCF   energy in the final basis set =     -363.6887910989
 Total energy in the final basis set =     -363.6887910989
 
 Direct TDDFT/TDA calculation will be performed
 Exchange:     0.2000 Hartree-Fock + 0.0800 Slater + 0.7200 B88
 Correlation:  0.1900 PW92 + 0.8100 PW91
 Using SG-1 standard quadrature grid
 Singlet excitation energies requested
 CIS energy converged when residual is below 10e- 6
 ---------------------------------------------------
 Iter    Rts Conv    Rts Left    Ttl Dev     Max Dev
 ---------------------------------------------------
   1         0           3      0.003765    0.001882
   2         0           3      0.002305    0.001447
   3         0           3      0.000559    0.000392
   4         0           3      0.000193    0.000130
   5         0           3      0.000057    0.000036
   6         1           2      0.000016    0.000011
   7         1           2      0.000006    0.000004
   8         3           0      0.000002    0.000001    Roots Converged
 ---------------------------------------------------
 
 ---------------------------------------------------
         TDDFT/TDA Excitation Energies              
 ---------------------------------------------------

 Excited state   1: excitation energy (eV) =    4.7315
 Total energy for state  1:                  -363.51491090 au
    Multiplicity: Singlet
    Trans. Mom.:  0.7563 X  -0.4698 Y  -0.0001 Z
    Strength   :     0.0918858119
    D(   30) --> V(    1) amplitude =  0.2808
    D(   30) --> V(    3) amplitude = -0.2406
    D(   31) --> V(    1) amplitude =  0.8099
    D(   31) --> V(    3) amplitude =  0.3854

 Excited state   2: excitation energy (eV) =    4.8038
 Total energy for state  2:                  -363.51225421 au
    Multiplicity: Singlet
    Trans. Mom.: -0.0652 X   0.4895 Y  -0.0000 Z
    Strength   :     0.0287024026
    D(   30) --> V(    1) amplitude =  0.7199
    D(   31) --> V(    1) amplitude = -0.4101
    D(   31) --> V(    3) amplitude =  0.4972

 Excited state   3: excitation energy (eV) =    5.0651
 Total energy for state  3:                  -363.50265081 au
    Multiplicity: Singlet
    Trans. Mom.:  0.0005 X  -0.0002 Y   0.1389 Z
    Strength   :     0.0023954521
    D(   31) --> V(    2) amplitude =  0.9957
 
 ---------------------------------------------------
 Calculating Relaxed Density
 ---------------------------------------------------
 Iter    Rts Conv    Rts Left    Ttl Dev     Max Dev
 ---------------------------------------------------
   1         0           3      0.001622    0.000789
   2         0           3      0.000602    0.000265
   3         0           3      0.000151    0.000069
   4         0           3      0.000041    0.000018
   5         1           2      0.000008    0.000005
   6         1           2      0.000002    0.000001
   7         3           0      0.000000    0.000000    Roots Converged
 ---------------------------------------------------
  SETman timing summary (seconds)
  CPU time               114.95s
  System time              0.00s
  Wall time               28.87s
 
 --------------------------------------------------------------
 
                    Orbital Energies (a.u.)
 --------------------------------------------------------------
 
 Alpha MOs
 -- Occupied --
-14.3828 -10.2174 -10.2164 -10.1877 -10.1829 -10.1818 -10.1817 -10.1790
-10.1703  -0.9894  -0.8376  -0.7871  -0.7382  -0.7185  -0.6296  -0.6034
 -0.5835  -0.5440  -0.4906  -0.4731  -0.4413  -0.4362  -0.4250  -0.4097
 -0.3958  -0.3595  -0.3413  -0.3348  -0.2839  -0.2277  -0.2085
 -- Virtual --
 -0.0246   0.0065   0.0112   0.0257   0.0319   0.0454   0.0461   0.0475
  0.0689   0.0711   0.0746   0.0751   0.0945   0.0987   0.1153   0.1161
  0.1205   0.1342   0.1437   0.1459   0.1602   0.1669   0.1711   0.1715
  0.1770   0.1840   0.1922   0.1923   0.2017   0.2043   0.2055   0.2070
  0.2229   0.2275   0.2362   0.2419   0.2432   0.2469   0.2592   0.2665
  0.2767   0.2773   0.2813   0.2946   0.2974   0.3074   0.3211   0.3323
  0.3462   0.3608   0.3704   0.3936   0.4242   0.4440   0.5071   0.5606
  0.5956   0.6780   0.6786   0.7012   0.7144   0.7242   0.7275   0.7371
  0.7395   0.7538   0.7557   0.7774   0.7906   0.7926   0.8121   0.8525
  0.8912   0.8977   0.9097   0.9403   0.9477   0.9546   0.9593   0.9878
  0.9948   1.0317   1.0487   1.0606   1.0913   1.1101   1.1115   1.1681
  1.1754   1.1995   1.2227   1.2343   1.2399   1.3135   1.3171   1.3400
  1.3588   1.3994   1.4074   1.4358   1.4536   1.4695   1.4886   1.4930
  1.5355   1.5782   1.6394   1.7706   1.8182   1.8791   1.8835   1.8949
  1.9118   1.9760   1.9866   2.0006   2.0332   2.0545   2.1156   2.1318
  2.1524   2.1731   2.2238   2.2345   2.2453   2.2622   2.2912   2.3589
  2.3926   2.4408   2.5191   2.5355   2.6190   2.6207   2.6400   2.6690
  2.7092   2.7816   2.8194   2.8262   2.9420   2.9610   3.0803   3.2135
  3.3716   4.1450   4.2365   4.2924   4.3138   4.3550   4.3974   4.4731
  4.5161   4.7673
 --------------------------------------------------------------
 
          Ground-State Mulliken Net Atomic Charges

     Atom                 Charge (a.u.)
  ----------------------------------------
      1 C                    -0.040465
      2 C                    -0.461420
      3 C                    -0.234197
      4 C                    -1.099143
      5 C                     1.509967
      6 C                    -0.648989
      7 N                    -0.421875
      8 C                    -0.036242
      9 C                    -0.209888
     10 H                     0.428230
     11 H                     0.207661
     12 H                     0.209524
     13 H                     0.196214
     14 H                     0.198908
     15 H                     0.196111
     16 H                     0.205605
  ----------------------------------------
  Sum of atomic charges =     0.000000

 -----------------------------------------------------------------
                    Cartesian Multipole Moments
 -----------------------------------------------------------------
    Charge (ESU x 10^10)
                 0.0000
    Dipole Moment (Debye)
         X      -1.5669      Y       1.6336      Z       0.0012
       Tot       2.2636
    Quadrupole Moments (Debye-Ang)
        XX     -44.7347     XY      -3.4770     YY     -43.5831
        XZ      -0.0030     YZ       0.0034     ZZ     -58.9127
    Octopole Moments (Debye-Ang^2)
       XXX     -14.9665    XXY       8.9254    XYY      -8.0452
       YYY      10.9393    XXZ       0.0046    XYZ      -0.0070
       YYZ       0.0062    XZZ      -2.2963    YZZ       2.1163
       ZZZ       0.0002
    Hexadecapole Moments (Debye-Ang^3)
      XXXX    -813.1040   XXXY     -22.0481   XXYY    -196.7757
      XYYY     -18.8564   YYYY    -372.3177   XXXZ      -0.0145
      XXYZ       0.0136   XYYZ      -0.0138   YYYZ       0.0145
      XXZZ    -190.8770   XYZZ      -3.2185   YYZZ     -95.4211
      XZZZ      -0.0011   YZZZ       0.0016   ZZZZ     -72.0959
 -----------------------------------------------------------------
 Calculating analytic gradient of the CIS energy
 CIS relaxed dipole moment
            1
    1  -0.9394973
    2   0.4090969
    3   0.0002875
	Magnitude:	 1.025 au	 2.605 Debye
 CIS 2 State Energy is -363.5122542092
 Gradient of the state energy (including CIS Excitation Energy)
            1           2           3           4           5           6
    1   0.0032737  -0.0154390   0.0174973  -0.0092267  -0.0058922   0.0056035
    2  -0.0133018   0.0096333   0.0050945  -0.0174707  -0.0055398  -0.0040554
    3  -0.0000002   0.0000001  -0.0000018  -0.0000011   0.0000103   0.0000022
            7           8           9          10          11          12
    1  -0.0277514   0.0142974   0.0185860  -0.0009787   0.0011208  -0.0011267
    2   0.0102814  -0.0033907   0.0174016  -0.0013564  -0.0001133   0.0009687
    3  -0.0000155   0.0000020  -0.0000044   0.0000093  -0.0000013   0.0000019
           13          14          15          16
    1   0.0000422  -0.0000302   0.0003280  -0.0003041
    2   0.0013489   0.0007450   0.0003658  -0.0006112
    3  -0.0000004   0.0000013  -0.0000003  -0.0000022
 Gradient time:  CPU 21.51 s  wall 5.40 s
 Geometry Optimization Parameters
   NAtoms,    NIC,     NZ,  NCons,   NDum,   NFix, NCnnct, MaxDiis
       16     116       0       0       0       0       0       0

 Cartesian Hessian Update
 Hessian updated using BFGS update


** GEOMETRY OPTIMIZATION IN DELOCALIZED INTERNAL COORDINATES **
   Searching for a Minimum

   Optimization Cycle:   2

                       Coordinates (Angstroms)
     ATOM                X               Y               Z
      1  C         2.1786161918   -0.7057976513   -0.0000072709
      2  C         2.1448114823    0.7269603482    0.0000027797
      3  C         0.9310483803    1.4478854384    0.0000106177
      4  C        -0.2579878684    0.6771593956   -0.0000116014
      5  C        -0.2504334587   -0.7718699143    0.0000074292
      6  C         0.9817859790   -1.4726875736    0.0000214866
      7  N        -1.5836573696    1.0904684781   -0.0001223366
      8  C        -1.6133001980   -1.1683131655    0.0000048322
      9  C        -2.4020110277   -0.0147209692    0.0000046479
     10  H        -1.9026806785    2.0468515455    0.0007353047
     11  H        -1.9888377190   -2.1833242323   -0.0000529213
     12  H        -3.4786221201    0.0965455627    0.0000291721
     13  H         3.0823797197    1.2768224946   -0.0000220134
     14  H         0.9138986403    2.5348141750   -0.0000324513
     15  H         3.1414903271   -1.2091044977   -0.0000506201
     16  H         1.0065946707   -2.5591369414    0.0000089258
   Point Group: c1    Number of degrees of freedom:    42


   Energy is   -363.512254209

 Hessian updated using BFGS update

 40 Hessian modes will be used to form the next step
  Hessian Eigenvalues:
     0.018594    0.019738    0.020011    0.020794    0.021683    0.022200
     0.022636    0.023004    0.023236    0.023608    0.023851    0.023984
     0.024127    0.159809    0.160000    0.160000    0.160000    0.160220
     0.198657    0.220588    0.229993    0.245943    0.248553    0.356165
     0.357146    0.357443    0.357903    0.362469    0.364313    0.369207
     0.377264    0.411393    0.426918    0.441968    0.464299    0.470319
     0.471761    0.474955    0.487634    0.783366

 Minimum search - taking simple RFO step
 Searching for Lamda that Minimizes Along All modes
 Value Taken    Lamda =  -0.00357865
 Step Taken.  Stepsize is  0.100366

                             Maximum     Tolerance    Cnvgd?
         Gradient           0.020493      0.000300      NO
         Displacement       0.050011      0.001200      NO
         Energy change     -0.004126      0.000001      NO


 New Cartesian Coordinates Obtained by Inverse Iteration

 Displacement from previous Coordinates is:  0.139244
 ----------------------------------------------------------------
             Standard Nuclear Orientation (Angstroms)
    I     Atom           X                Y                Z
 ----------------------------------------------------------------
    1      C       2.1814378191    -0.6932933725    -0.0000364348
    2      C       2.1674146802     0.7364612582    -0.0000141964
    3      C       0.9366847949     1.4572531483     0.0000296630
    4      C      -0.2462234830     0.6816877496     0.0000244265
    5      C      -0.2584203505    -0.7703053309    -0.0000043556
    6      C       0.9744316564    -1.4666792597     0.0000018501
    7      N      -1.5707373732     1.0702023395    -0.0000250868
    8      C      -1.6310152997    -1.1746829174     0.0000593811
    9      C      -2.4257959725    -0.0250929953    -0.0000569347
   10      H      -1.8812864825     2.0316761272     0.0007448389
   11      H      -2.0083148562    -2.1909804826     0.0000306431
   12      H      -3.5017922431     0.0928149722    -0.0001195710
   13      H       3.1103979130     1.2779832954    -0.0000425353
   14      H       0.9135908586     2.5444087344    -0.0000102331
   15      H       3.1408708869    -1.2054096382    -0.0000791160
   16      H       1.0018524029    -2.5534911357     0.0000236423
 ----------------------------------------------------------------
 Molecular Point Group                 C1    NOp =  1
 Largest Abelian Subgroup              C1    NOp =  1
 Nuclear Repulsion Energy =         395.53343579 hartrees
 There are       31 alpha and       31 beta electrons
 Applying Cartesian multipole field
    Component          Value
    ---------          -----
     (2,0,0)        1.00000E-11
     (0,2,0)        2.00000E-11
     (0,0,2)       -3.00000E-11
 Nucleus-field energy     =     0.0000000120 hartrees
 Requested basis set is 6-31+G(d)
 There are 59 shells and 185 basis functions
 A cutoff of  1.0D-12 yielded   1656 shell pairs
 There are     17099 function pairs
 Smallest overlap matrix eigenvalue = 1.49E-06
 Guess MOs from SCF MO coefficient file

 -----------------------------------------------------------------------
  General SCF calculation program by
  Eric Jon Sundstrom, Paul Horn, Yuezhi Mao, Dmitri Zuev, Alec White,
  David Stuck, Shaama M.S., Shane Yost, Joonho Lee, David Small,
  Daniel Levine, Susi Lehtola, Hugh Burton, Evgeny Epifanovsky,
  Bang C. Huynh
 -----------------------------------------------------------------------
 Exchange:     0.2000 Hartree-Fock + 0.0800 Slater + 0.7200 B88
 Correlation:  0.1900 PW92 + 0.8100 PW91
 Using SG-1 standard quadrature grid
 using 4 threads for integral computing
 -------------------------------------------------------
 OpenMP Integral computing Module                
 Release: version 1.0, May 2013, Q-Chem Inc. Pittsburgh 
 -------------------------------------------------------
 A restricted SCF calculation will be
 performed using DIIS
 SCF converges when DIIS error is below 1.0e-08
 ---------------------------------------
  Cycle       Energy         DIIS error
 ---------------------------------------
    1    -363.6862911682      4.23e-04  
    2    -363.6872260948      1.16e-04  
    3    -363.6872052897      1.32e-04  
    4    -363.6872782127      3.55e-05  
    5    -363.6872839450      1.05e-05  
    6    -363.6872844118      3.48e-06  
    7    -363.6872844657      1.00e-06  
    8    -363.6872844700      4.87e-07  
    9    -363.6872844711      1.10e-07  
   10    -363.6872844712      6.50e-08  
   11    -363.6872844712      1.35e-08  
   12    -363.6872844712      6.66e-09  Convergence criterion met
 ---------------------------------------
 SCF time:   CPU 34.84s  wall 9.00s 
 SCF   energy in the final basis set =     -363.6872844712
 Total energy in the final basis set =     -363.6872844712
 
 Direct TDDFT/TDA calculation will be performed
 Exchange:     0.2000 Hartree-Fock + 0.0800 Slater + 0.7200 B88
 Correlation:  0.1900 PW92 + 0.8100 PW91
 Using SG-1 standard quadrature grid
 Singlet excitation energies requested
 CIS energy converged when residual is below 10e- 6
 ---------------------------------------------------
 Iter    Rts Conv    Rts Left    Ttl Dev     Max Dev
 ---------------------------------------------------
   1         0           3      0.003784    0.001884
   2         0           3      0.001958    0.001239
   3         0           3      0.000519    0.000352
   4         0           3      0.000182    0.000129
   5         0           3      0.000057    0.000039
   6         1           2      0.000014    0.000010
   7         1           2      0.000005    0.000003
   8         3           0      0.000002    0.000001    Roots Converged
 ---------------------------------------------------
 
 ---------------------------------------------------
         TDDFT/TDA Excitation Energies              
 ---------------------------------------------------

 Excited state   1: excitation energy (eV) =    4.6930
 Total energy for state  1:                  -363.51482115 au
    Multiplicity: Singlet
    Trans. Mom.: -0.3206 X   0.7081 Y  -0.0000 Z
    Strength   :     0.0694686546
    D(   30) --> V(    1) amplitude = -0.4270
    D(   30) --> V(    3) amplitude =  0.2208
    D(   31) --> V(    1) amplitude =  0.7989

 Excited state   2: excitation energy (eV) =    4.7528
 Total energy for state  2:                  -363.51262374 au
    Multiplicity: Singlet
    Trans. Mom.: -0.6585 X   0.1656 Y   0.0000 Z
    Strength   :     0.0536830184
    D(   30) --> V(    1) amplitude =  0.6529
    D(   31) --> V(    1) amplitude =  0.4399
    D(   31) --> V(    3) amplitude = -0.5821

 Excited state   3: excitation energy (eV) =    5.1080
 Total energy for state  3:                  -363.49956903 au
    Multiplicity: Singlet
    Trans. Mom.:  0.0003 X  -0.0001 Y   0.1317 Z
    Strength   :     0.0021698163
    D(   31) --> V(    2) amplitude =  0.9953
 
 ---------------------------------------------------
 Calculating Relaxed Density
 ---------------------------------------------------
 Iter    Rts Conv    Rts Left    Ttl Dev     Max Dev
 ---------------------------------------------------
   1         0           3      0.001609    0.000778
   2         0           3      0.000585    0.000220
   3         0           3      0.000141    0.000056
   4         0           3      0.000038    0.000020
   5         0           3      0.000009    0.000004
   6         3           0      0.000000    0.000000    Roots Converged
 ---------------------------------------------------
  SETman timing summary (seconds)
  CPU time               111.78s
  System time              0.00s
  Wall time               28.07s
 
 --------------------------------------------------------------
 
                    Orbital Energies (a.u.)
 --------------------------------------------------------------
 
 Alpha MOs
 -- Occupied --
-14.3815 -10.2189 -10.2181 -10.1894 -10.1845 -10.1843 -10.1832 -10.1797
-10.1730  -0.9870  -0.8351  -0.7860  -0.7361  -0.7200  -0.6304  -0.6007
 -0.5834  -0.5416  -0.4928  -0.4735  -0.4385  -0.4332  -0.4238  -0.4110
 -0.3993  -0.3582  -0.3424  -0.3329  -0.2836  -0.2268  -0.2094
 -- Virtual --
 -0.0273   0.0071   0.0114   0.0258   0.0316   0.0439   0.0456   0.0471
  0.0687   0.0708   0.0744   0.0749   0.0946   0.0985   0.1147   0.1156
  0.1203   0.1344   0.1432   0.1465   0.1600   0.1660   0.1707   0.1712
  0.1750   0.1838   0.1905   0.1913   0.2016   0.2023   0.2049   0.2064
  0.2223   0.2270   0.2347   0.2431   0.2432   0.2468   0.2589   0.2651
  0.2759   0.2774   0.2809   0.2926   0.2964   0.3059   0.3174   0.3314
  0.3448   0.3610   0.3697   0.3940   0.4178   0.4448   0.5050   0.5573
  0.5922   0.6769   0.6774   0.7020   0.7117   0.7245   0.7254   0.7326
  0.7392   0.7524   0.7546   0.7775   0.7877   0.7922   0.8105   0.8515
  0.8893   0.8981   0.9072   0.9413   0.9448   0.9541   0.9595   0.9845
  0.9936   1.0314   1.0491   1.0643   1.0920   1.1095   1.1103   1.1653
  1.1736   1.1997   1.2215   1.2348   1.2400   1.3090   1.3172   1.3414
  1.3584   1.3988   1.4026   1.4319   1.4595   1.4693   1.4879   1.4903
  1.5295   1.5737   1.6295   1.7817   1.8150   1.8708   1.8847   1.8943
  1.9138   1.9783   1.9808   1.9954   2.0256   2.0365   2.1101   2.1158
  2.1420   2.1829   2.2202   2.2247   2.2455   2.2520   2.2863   2.3466
  2.3899   2.4358   2.5149   2.5303   2.6134   2.6145   2.6397   2.6607
  2.7030   2.7750   2.8078   2.8269   2.9472   2.9522   3.0689   3.2113
  3.3599   4.1386   4.2312   4.2880   4.3190   4.3534   4.3961   4.4715
  4.5145   4.7619
 --------------------------------------------------------------
 
          Ground-State Mulliken Net Atomic Charges

     Atom                 Charge (a.u.)
  ----------------------------------------
      1 C                    -0.031201
      2 C                    -0.455400
      3 C                    -0.183895
      4 C                    -1.064760
      5 C                     1.454800
      6 C                    -0.727116
      7 N                    -0.430992
      8 C                     0.001047
      9 C                    -0.207968
     10 H                     0.424831
     11 H                     0.208428
     12 H                     0.213603
     13 H                     0.198923
     14 H                     0.199302
     15 H                     0.195087
     16 H                     0.205312
  ----------------------------------------
  Sum of atomic charges =     0.000000

 -----------------------------------------------------------------
                    Cartesian Multipole Moments
 -----------------------------------------------------------------
    Charge (ESU x 10^10)
                 0.0000
    Dipole Moment (Debye)
         X      -1.5864      Y       1.5832      Z       0.0010
       Tot       2.2413
    Quadrupole Moments (Debye-Ang)
        XX     -44.4446     XY      -3.1577     YY     -43.7866
        XZ      -0.0023     YZ       0.0029     ZZ     -59.0182
    Octopole Moments (Debye-Ang^2)
       XXX     -15.8137    XXY       8.6411    XYY      -7.6562
       YYY      10.4050    XXZ       0.0021    XYZ      -0.0062
       YYZ       0.0062    XZZ      -2.3288    YZZ       2.0707
       ZZZ      -0.0007
    Hexadecapole Moments (Debye-Ang^3)
      XXXX    -814.3777   XXXY     -22.6405   XXYY    -199.0984
      XYYY     -20.7956   YYYY    -373.3091   XXXZ      -0.0041
      XXYZ       0.0109   XYYZ      -0.0124   YYYZ       0.0102
      XXZZ    -192.8135   XYZZ      -4.5428   YYZZ     -95.5585
      XZZZ       0.0023   YZZZ      -0.0011   ZZZZ     -72.3961
 -----------------------------------------------------------------
 Calculating analytic gradient of the CIS energy
 CIS relaxed dipole moment
            1
    1  -1.1971138
    2   0.6129938
    3   0.0002782
	Magnitude:	 1.345 au	 3.418 Debye
 CIS 2 State Energy is -363.5126237356
 Gradient of the state energy (including CIS Excitation Energy)
            1           2           3           4           5           6
    1   0.0015067   0.0148517  -0.0086907   0.0004702   0.0035394  -0.0037913
    2   0.0017860   0.0030136  -0.0016043   0.0171504  -0.0006024   0.0001967
    3  -0.0000021   0.0000001   0.0000030  -0.0000045  -0.0000111  -0.0000000
            7           8           9          10          11          12
    1   0.0243499  -0.0157135  -0.0160420   0.0005969  -0.0006213  -0.0012145
    2  -0.0021449   0.0020267  -0.0185476   0.0012464  -0.0009006  -0.0007780
    3   0.0000050   0.0000187  -0.0000184   0.0000102   0.0000015  -0.0000034
           13          14          15          16
    1   0.0011428  -0.0003123   0.0008847  -0.0009567
    2  -0.0002079   0.0011620  -0.0005087  -0.0012873
    3  -0.0000004  -0.0000000   0.0000003   0.0000011
 Gradient time:  CPU 21.80 s  wall 5.47 s
 Geometry Optimization Parameters
   NAtoms,    NIC,     NZ,  NCons,   NDum,   NFix, NCnnct, MaxDiis
       16     116       0       0       0       0       0       0

 Cartesian Hessian Update
 Hessian updated using BFGS update


** GEOMETRY OPTIMIZATION IN DELOCALIZED INTERNAL COORDINATES **
   Searching for a Minimum

   Optimization Cycle:   3

                       Coordinates (Angstroms)
     ATOM                X               Y               Z
      1  C         2.1814378191   -0.6932933725   -0.0000364348
      2  C         2.1674146802    0.7364612582   -0.0000141964
      3  C         0.9366847949    1.4572531483    0.0000296630
      4  C        -0.2462234830    0.6816877496    0.0000244265
      5  C        -0.2584203505   -0.7703053309   -0.0000043556
      6  C         0.9744316564   -1.4666792597    0.0000018501
      7  N        -1.5707373732    1.0702023395   -0.0000250868
      8  C        -1.6310152997   -1.1746829174    0.0000593811
      9  C        -2.4257959725   -0.0250929953   -0.0000569347
     10  H        -1.8812864825    2.0316761272    0.0007448389
     11  H        -2.0083148562   -2.1909804826    0.0000306431
     12  H        -3.5017922431    0.0928149722   -0.0001195710
     13  H         3.1103979130    1.2779832954   -0.0000425353
     14  H         0.9135908586    2.5444087344   -0.0000102331
     15  H         3.1408708869   -1.2054096382   -0.0000791160
     16  H         1.0018524029   -2.5534911357    0.0000236423
   Point Group: c1    Number of degrees of freedom:    42


   Energy is   -363.512623736

 Hessian updated using BFGS update

 41 Hessian modes will be used to form the next step
  Hessian Eigenvalues:
     0.018594    0.019738    0.020011    0.020794    0.021683    0.022200
     0.022636    0.023004    0.023236    0.023608    0.023851    0.023984
     0.024127    0.159477    0.160000    0.160000    0.160000    0.160011
     0.160533    0.212453    0.220925    0.230887    0.246358    0.289067
     0.357142    0.357260    0.357826    0.357979    0.363972    0.364335
     0.370332    0.401559    0.426782    0.432845    0.438972    0.465129
     0.470204    0.471897    0.478486    0.486581    1.053141

 Minimum search - taking simple RFO step
 Searching for Lamda that Minimizes Along All modes
 Value Taken    Lamda =  -0.00180391
 Step Taken.  Stepsize is  0.053412

                             Maximum     Tolerance    Cnvgd?
         Gradient           0.018761      0.000300      NO
         Displacement       0.024168      0.001200      NO
         Energy change     -0.000370      0.000001      NO


 New Cartesian Coordinates Obtained by Inverse Iteration

 Displacement from previous Coordinates is:  0.086387
 ----------------------------------------------------------------
             Standard Nuclear Orientation (Angstroms)
    I     Atom           X                Y                Z
 ----------------------------------------------------------------
    1      C       2.1745522099    -0.6953437918    -0.0000063931
    2      C       2.1509945307     0.7278435243     0.0000106422
    3      C       0.9304517746     1.4494191944     0.0000191491
    4      C      -0.2491494770     0.6768710592     0.0000239136
    5      C      -0.2530161106    -0.7688153124    -0.0000064010
    6      C       0.9765297278    -1.4657636700    -0.0000034321
    7      N      -1.5729345235     1.0760198750    -0.0000677128
    8      C      -1.6189728681    -1.1695902743    -0.0000049609
    9      C      -2.4115309699    -0.0191672674     0.0000674470
   10      H      -1.8857998994     2.0355711584     0.0005877689
   11      H      -1.9968359782    -2.1841230630    -0.0000827426
   12      H      -3.4860179375     0.0970542837     0.0000765042
   13      H       3.0911137909     1.2715608512    -0.0000024556
   14      H       0.9108808499     2.5350920420    -0.0000324893
   15      H       3.1347119065    -1.2031894895    -0.0000426454
   16      H       1.0081179252    -2.5508866274    -0.0000102113
 ----------------------------------------------------------------
 Molecular Point Group                 C1    NOp =  1
 Largest Abelian Subgroup              C1    NOp =  1
 Nuclear Repulsion Energy =         396.89664116 hartrees
 There are       31 alpha and       31 beta electrons
 Applying Cartesian multipole field
    Component          Value
    ---------          -----
     (2,0,0)        1.00000E-11
     (0,2,0)        2.00000E-11
     (0,0,2)       -3.00000E-11
 Nucleus-field energy     =     0.0000000120 hartrees
 Requested basis set is 6-31+G(d)
 There are 59 shells and 185 basis functions
 A cutoff of  1.0D-12 yielded   1656 shell pairs
 There are     17099 function pairs
 Smallest overlap matrix eigenvalue = 1.43E-06
 Guess MOs from SCF MO coefficient file

 -----------------------------------------------------------------------
  General SCF calculation program by
  Eric Jon Sundstrom, Paul Horn, Yuezhi Mao, Dmitri Zuev, Alec White,
  David Stuck, Shaama M.S., Shane Yost, Joonho Lee, David Small,
  Daniel Levine, Susi Lehtola, Hugh Burton, Evgeny Epifanovsky,
  Bang C. Huynh
 -----------------------------------------------------------------------
 Exchange:     0.2000 Hartree-Fock + 0.0800 Slater + 0.7200 B88
 Correlation:  0.1900 PW92 + 0.8100 PW91
 Using SG-1 standard quadrature grid
 using 4 threads for integral computing
 -------------------------------------------------------
 OpenMP Integral computing Module                
 Release: version 1.0, May 2013, Q-Chem Inc. Pittsburgh 
 -------------------------------------------------------
 A restricted SCF calculation will be
 performed using DIIS
 SCF converges when DIIS error is below 1.0e-08
 ---------------------------------------
  Cycle       Energy         DIIS error
 ---------------------------------------
    1    -363.6890480058      2.30e-04  
    2    -363.6892913727      7.42e-05  
    3    -363.6892957681      6.59e-05  
    4    -363.6893139366      2.13e-05  
    5    -363.6893160174      4.92e-06  
    6    -363.6893161160      1.99e-06  
    7    -363.6893161328      3.57e-07  
    8    -363.6893161333      1.81e-07  
    9    -363.6893161334      5.30e-08  
   10    -363.6893161334      2.29e-08  
   11    -363.6893161334      4.10e-09  Convergence criterion met
 ---------------------------------------
 SCF time:   CPU 32.17s  wall 8.00s 
 SCF   energy in the final basis set =     -363.6893161334
 Total energy in the final basis set =     -363.6893161334
 
 Direct TDDFT/TDA calculation will be performed
 Exchange:     0.2000 Hartree-Fock + 0.0800 Slater + 0.7200 B88
 Correlation:  0.1900 PW92 + 0.8100 PW91
 Using SG-1 standard quadrature grid
 Singlet excitation energies requested
 CIS energy converged when residual is below 10e- 6
 ---------------------------------------------------
 Iter    Rts Conv    Rts Left    Ttl Dev     Max Dev
 ---------------------------------------------------
   1         0           3      0.003776    0.001887
   2         0           3      0.001997    0.001234
   3         0           3      0.000526    0.000362
   4         0           3      0.000185    0.000131
   5         0           3      0.000059    0.000039
   6         1           2      0.000016    0.000011
   7         1           2      0.000005    0.000004
   8         2           1      0.000002    0.000001
   9         3           0      0.000001    0.000000    Roots Converged
 ---------------------------------------------------
 
 ---------------------------------------------------
         TDDFT/TDA Excitation Energies              
 ---------------------------------------------------

 Excited state   1: excitation energy (eV) =    4.7284
 Total energy for state  1:                  -363.51555018 au
    Multiplicity: Singlet
    Trans. Mom.:  0.6500 X  -0.6841 Y  -0.0001 Z
    Strength   :     0.1031587580
    D(   30) --> V(    3) amplitude = -0.2446
    D(   31) --> V(    1) amplitude =  0.9115

 Excited state   2: excitation energy (eV) =    4.7881
 Total energy for state  2:                  -363.51335607 au
    Multiplicity: Singlet
    Trans. Mom.: -0.3669 X  -0.1977 Y   0.0000 Z
    Strength   :     0.0203748932
    D(   30) --> V(    1) amplitude =  0.7723
    D(   31) --> V(    3) amplitude =  0.6166

 Excited state   3: excitation energy (eV) =    5.0771
 Total energy for state  3:                  -363.50273750 au
    Multiplicity: Singlet
    Trans. Mom.: -0.0003 X   0.0002 Y  -0.1354 Z
    Strength   :     0.0022792501
    D(   31) --> V(    2) amplitude =  0.9956
 
 ---------------------------------------------------
 Calculating Relaxed Density
 ---------------------------------------------------
 Iter    Rts Conv    Rts Left    Ttl Dev     Max Dev
 ---------------------------------------------------
   1         0           3      0.001569    0.000833
   2         0           3      0.000555    0.000271
   3         0           3      0.000153    0.000070
   4         0           3      0.000045    0.000024
   5         1           2      0.000008    0.000004
   6         1           2      0.000003    0.000001
   7         3           0      0.000000    0.000000    Roots Converged
 ---------------------------------------------------
  SETman timing summary (seconds)
  CPU time               119.98s
  System time              0.00s
  Wall time               30.13s
 
 --------------------------------------------------------------
 
                    Orbital Energies (a.u.)
 --------------------------------------------------------------
 
 Alpha MOs
 -- Occupied --
-14.3814 -10.2170 -10.2164 -10.1875 -10.1824 -10.1817 -10.1813 -10.1777
-10.1708  -0.9894  -0.8381  -0.7870  -0.7383  -0.7198  -0.6309  -0.6020
 -0.5839  -0.5434  -0.4914  -0.4740  -0.4398  -0.4354  -0.4253  -0.4106
 -0.3979  -0.3583  -0.3424  -0.3348  -0.2839  -0.2279  -0.2086
 -- Virtual --
 -0.0256   0.0068   0.0127   0.0258   0.0318   0.0451   0.0460   0.0474
  0.0688   0.0710   0.0748   0.0751   0.0947   0.0985   0.1152   0.1160
  0.1205   0.1347   0.1436   0.1464   0.1606   0.1669   0.1714   0.1721
  0.1764   0.1842   0.1919   0.1926   0.2022   0.2040   0.2053   0.2070
  0.2232   0.2279   0.2360   0.2427   0.2435   0.2476   0.2595   0.2660
  0.2769   0.2776   0.2816   0.2952   0.2988   0.3074   0.3199   0.3331
  0.3473   0.3619   0.3718   0.3951   0.4228   0.4468   0.5080   0.5627
  0.5981   0.6772   0.6776   0.7018   0.7144   0.7244   0.7290   0.7351
  0.7392   0.7547   0.7555   0.7778   0.7904   0.7929   0.8121   0.8527
  0.8909   0.8982   0.9093   0.9411   0.9464   0.9545   0.9598   0.9865
  0.9955   1.0316   1.0495   1.0630   1.0918   1.1112   1.1123   1.1682
  1.1758   1.2013   1.2228   1.2341   1.2412   1.3129   1.3172   1.3406
  1.3603   1.4010   1.4043   1.4351   1.4586   1.4689   1.4891   1.4916
  1.5349   1.5783   1.6351   1.7802   1.8195   1.8781   1.8866   1.8998
  1.9162   1.9823   1.9858   2.0000   2.0336   2.0497   2.1199   2.1298
  2.1496   2.1828   2.2286   2.2303   2.2516   2.2575   2.2935   2.3570
  2.3940   2.4419   2.5214   2.5381   2.6190   2.6242   2.6428   2.6677
  2.7107   2.7831   2.8190   2.8307   2.9495   2.9600   3.0799   3.2188
  3.3783   4.1436   4.2394   4.2909   4.3181   4.3565   4.3980   4.4744
  4.5168   4.7690
 --------------------------------------------------------------
 
          Ground-State Mulliken Net Atomic Charges

     Atom                 Charge (a.u.)
  ----------------------------------------
      1 C                    -0.031773
      2 C                    -0.458809
      3 C                    -0.205883
      4 C                    -1.086930
      5 C                     1.495707
      6 C                    -0.703051
      7 N                    -0.427983
      8 C                    -0.015344
      9 C                    -0.207927
     10 H                     0.425944
     11 H                     0.207690
     12 H                     0.211656
     13 H                     0.197140
     14 H                     0.199133
     15 H                     0.195111
     16 H                     0.205318
  ----------------------------------------
  Sum of atomic charges =     0.000000

 -----------------------------------------------------------------
                    Cartesian Multipole Moments
 -----------------------------------------------------------------
    Charge (ESU x 10^10)
                -0.0000
    Dipole Moment (Debye)
         X      -1.5691      Y       1.6152      Z       0.0009
       Tot       2.2519
    Quadrupole Moments (Debye-Ang)
        XX     -44.6075     XY      -3.3300     YY     -43.7287
        XZ      -0.0023     YZ       0.0027     ZZ     -58.8777
    Octopole Moments (Debye-Ang^2)
       XXX     -15.4444    XXY       8.7249    XYY      -7.7350
       YYY      10.6928    XXZ       0.0031    XYZ      -0.0056
       YYZ       0.0038    XZZ      -2.2421    YZZ       2.1066
       ZZZ      -0.0018
    Hexadecapole Moments (Debye-Ang^3)
      XXXX    -810.6930   XXXY     -22.3293   XXYY    -197.3400
      XYYY     -19.8055   YYYY    -371.2360   XXXZ      -0.0083
      XXYZ       0.0100   XYYZ      -0.0090   YYYZ       0.0090
      XXZZ    -190.9142   XYZZ      -3.9083   YYZZ     -94.9842
      XZZZ       0.0028   YZZZ      -0.0014   ZZZZ     -72.0192
 -----------------------------------------------------------------
 Calculating analytic gradient of the CIS energy
 CIS relaxed dipole moment
            1
    1  -0.7895800
    2   0.5184738
    3   0.0002490
	Magnitude:	 0.945 au	 2.401 Debye
 CIS 2 State Energy is -363.5133560696
 Gradient of the state energy (including CIS Excitation Energy)
            1           2           3           4           5           6
    1   0.0000691   0.0020543  -0.0040862   0.0054322   0.0025273   0.0030594
    2   0.0074766  -0.0115087   0.0033609  -0.0119905   0.0112579  -0.0018827
    3  -0.0000000  -0.0000003  -0.0000005   0.0000028   0.0000026   0.0000008
            7           8           9          10          11          12
    1  -0.0098796   0.0037564  -0.0017171  -0.0006758  -0.0001662  -0.0000641
    2  -0.0080946  -0.0027795   0.0134770   0.0004436   0.0000111   0.0001424
    3  -0.0000092  -0.0000019   0.0000029   0.0000043  -0.0000014   0.0000005
           13          14          15          16
    1   0.0001105  -0.0002756   0.0000469  -0.0001915
    2  -0.0000869   0.0000636   0.0002388  -0.0001290
    3  -0.0000001  -0.0000002  -0.0000002  -0.0000001
 Gradient time:  CPU 21.52 s  wall 5.40 s
 Geometry Optimization Parameters
   NAtoms,    NIC,     NZ,  NCons,   NDum,   NFix, NCnnct, MaxDiis
       16     116       0       0       0       0       0       0

 Cartesian Hessian Update
 Hessian updated using BFGS update


** GEOMETRY OPTIMIZATION IN DELOCALIZED INTERNAL COORDINATES **
   Searching for a Minimum

   Optimization Cycle:   4

                       Coordinates (Angstroms)
     ATOM                X               Y               Z
      1  C         2.1745522099   -0.6953437918   -0.0000063931
      2  C         2.1509945307    0.7278435243    0.0000106422
      3  C         0.9304517746    1.4494191944    0.0000191491
      4  C        -0.2491494770    0.6768710592    0.0000239136
      5  C        -0.2530161106   -0.7688153124   -0.0000064010
      6  C         0.9765297278   -1.4657636700   -0.0000034321
      7  N        -1.5729345235    1.0760198750   -0.0000677128
      8  C        -1.6189728681   -1.1695902743   -0.0000049609
      9  C        -2.4115309699   -0.0191672674    0.0000674470
     10  H        -1.8857998994    2.0355711584    0.0005877689
     11  H        -1.9968359782   -2.1841230630   -0.0000827426
     12  H        -3.4860179375    0.0970542837    0.0000765042
     13  H         3.0911137909    1.2715608512   -0.0000024556
     14  H         0.9108808499    2.5350920420   -0.0000324893
     15  H         3.1347119065   -1.2031894895   -0.0000426454
     16  H         1.0081179252   -2.5508866274   -0.0000102113
   Point Group: c1    Number of degrees of freedom:    42


   Energy is   -363.513356070

 Hessian updated using BFGS update

 41 Hessian modes will be used to form the next step
  Hessian Eigenvalues:
     0.018594    0.019738    0.020011    0.020794    0.021683    0.022200
     0.022636    0.023004    0.023236    0.023608    0.023851    0.023984
     0.024127    0.158936    0.159648    0.160000    0.160000    0.160018
     0.160514    0.189215    0.221375    0.228294    0.246352    0.274496
     0.349320    0.357146    0.357472    0.357864    0.361166    0.364047
     0.369385    0.372670    0.421294    0.426925    0.444074    0.458294
     0.471733    0.471764    0.485601    0.580959    1.434766

 Minimum search - taking simple RFO step
 Searching for Lamda that Minimizes Along All modes
 Value Taken    Lamda =  -0.00068624
 Step Taken.  Stepsize is  0.044290

                             Maximum     Tolerance    Cnvgd?
         Gradient           0.007225      0.000300      NO
         Displacement       0.020008      0.001200      NO
         Energy change     -0.000732      0.000001      NO


 New Cartesian Coordinates Obtained by Inverse Iteration

 Displacement from previous Coordinates is:  0.060071
 ----------------------------------------------------------------
             Standard Nuclear Orientation (Angstroms)
    I     Atom           X                Y                Z
 ----------------------------------------------------------------
    1      C       2.1671233585    -0.6979188172    -0.0000044171
    2      C       2.1436843199     0.7313738147     0.0000225741
    3      C       0.9306998428     1.4500363924     0.0000208500
    4      C      -0.2510231885     0.6811919811     0.0000251980
    5      C      -0.2560297533    -0.7725233496    -0.0000102985
    6      C       0.9713100468    -1.4662062971    -0.0000204527
    7      N      -1.5691898803     1.0844287273    -0.0000696300
    8      C      -1.6154118359    -1.1737870309    -0.0000079600
    9      C      -2.3982353571    -0.0232225013     0.0001052276
   10      H      -1.8837629652     2.0422570655     0.0005006217
   11      H      -1.9937738471    -2.1874164117    -0.0000834241
   12      H      -3.4722784557     0.0907438669     0.0001247479
   13      H       3.0826335215     1.2759767242     0.0000234994
   14      H       0.9152564586     2.5351246998    -0.0000211773
   15      H       3.1261054267    -1.2070121379    -0.0000383255
   16      H       1.0059872596    -2.5504942336    -0.0000410523
 ----------------------------------------------------------------
 Molecular Point Group                 C1    NOp =  1
 Largest Abelian Subgroup              C1    NOp =  1
 Nuclear Repulsion Energy =         397.25926544 hartrees
 There are       31 alpha and       31 beta electrons
 Applying Cartesian multipole field
    Component          Value
    ---------          -----
     (2,0,0)        1.00000E-11
     (0,2,0)        2.00000E-11
     (0,0,2)       -3.00000E-11
 Nucleus-field energy     =     0.0000000119 hartrees
 Requested basis set is 6-31+G(d)
 There are 59 shells and 185 basis functions
 A cutoff of  1.0D-12 yielded   1656 shell pairs
 There are     17099 function pairs
 Smallest overlap matrix eigenvalue = 1.43E-06
 Guess MOs from SCF MO coefficient file

 -----------------------------------------------------------------------
  General SCF calculation program by
  Eric Jon Sundstrom, Paul Horn, Yuezhi Mao, Dmitri Zuev, Alec White,
  David Stuck, Shaama M.S., Shane Yost, Joonho Lee, David Small,
  Daniel Levine, Susi Lehtola, Hugh Burton, Evgeny Epifanovsky,
  Bang C. Huynh
 -----------------------------------------------------------------------
 Exchange:     0.2000 Hartree-Fock + 0.0800 Slater + 0.7200 B88
 Correlation:  0.1900 PW92 + 0.8100 PW91
 Using SG-1 standard quadrature grid
 using 4 threads for integral computing
 -------------------------------------------------------
 OpenMP Integral computing Module                
 Release: version 1.0, May 2013, Q-Chem Inc. Pittsburgh 
 -------------------------------------------------------
 A restricted SCF calculation will be
 performed using DIIS
 SCF converges when DIIS error is below 1.0e-08
 ---------------------------------------
  Cycle       Energy         DIIS error
 ---------------------------------------
    1    -363.6894719712      1.94e-04  
    2    -363.6896613489      5.42e-05  
    3    -363.6896589565      5.81e-05  
    4    -363.6896727649      9.35e-06  
    5    -363.6896730897      4.20e-06  
    6    -363.6896731596      1.08e-06  
    7    -363.6896731646      3.43e-07  
    8    -363.6896731651      1.50e-07  
    9    -363.6896731652      4.45e-08  
   10    -363.6896731652      1.90e-08  
   11    -363.6896731652      4.93e-09  Convergence criterion met
 ---------------------------------------
 SCF time:   CPU 32.63s  wall 9.00s 
 SCF   energy in the final basis set =     -363.6896731652
 Total energy in the final basis set =     -363.6896731652
 
 Direct TDDFT/TDA calculation will be performed
 Exchange:     0.2000 Hartree-Fock + 0.0800 Slater + 0.7200 B88
 Correlation:  0.1900 PW92 + 0.8100 PW91
 Using SG-1 standard quadrature grid
 Singlet excitation energies requested
 CIS energy converged when residual is below 10e- 6
 ---------------------------------------------------
 Iter    Rts Conv    Rts Left    Ttl Dev     Max Dev
 ---------------------------------------------------
   1         0           3      0.003778    0.001887
   2         0           3      0.002238    0.001637
   3         0           3      0.000983    0.000835
   4         0           3      0.000223    0.000134
   5         0           3      0.000071    0.000037
   6         1           2      0.000025    0.000013
   7         1           2      0.000006    0.000003
   8         3           0      0.000002    0.000001    Roots Converged
 ---------------------------------------------------
 
 ---------------------------------------------------
         TDDFT/TDA Excitation Energies              
 ---------------------------------------------------

 Excited state   1: excitation energy (eV) =    4.7880
 Total energy for state  1:                  -363.51371804 au
    Multiplicity: Singlet
    Trans. Mom.: -0.5293 X  -0.0507 Y   0.0001 Z
    Strength   :     0.0331663223
    D(   30) --> V(    1) amplitude =  0.7330
    D(   31) --> V(    1) amplitude = -0.2390
    D(   31) --> V(    3) amplitude =  0.6156

 Excited state   2: excitation energy (eV) =    4.8029
 Total energy for state  2:                  -363.51316983 au
    Multiplicity: Singlet
    Trans. Mom.:  0.5495 X  -0.6893 Y  -0.0001 Z
    Strength   :     0.0914442348
    D(   30) --> V(    1) amplitude =  0.2745
    D(   30) --> V(    3) amplitude = -0.2553
    D(   31) --> V(    1) amplitude =  0.8739

 Excited state   3: excitation energy (eV) =    5.1110
 Total energy for state  3:                  -363.50184810 au
    Multiplicity: Singlet
    Trans. Mom.: -0.0003 X   0.0002 Y  -0.1391 Z
    Strength   :     0.0024222354
    D(   31) --> V(    2) amplitude =  0.9956
 
 ---------------------------------------------------
 Calculating Relaxed Density
 ---------------------------------------------------
 Iter    Rts Conv    Rts Left    Ttl Dev     Max Dev
 ---------------------------------------------------
   1         0           3      0.001541    0.000783
   2         0           3      0.000547    0.000240
   3         0           3      0.000135    0.000054
   4         0           3      0.000041    0.000020
   5         0           3      0.000009    0.000004
   6         3           0      0.000000    0.000000    Roots Converged
 ---------------------------------------------------
  SETman timing summary (seconds)
  CPU time               113.84s
  System time              0.00s
  Wall time               28.59s
 
 --------------------------------------------------------------
 
                    Orbital Energies (a.u.)
 --------------------------------------------------------------
 
 Alpha MOs
 -- Occupied --
-14.3819 -10.2163 -10.2162 -10.1861 -10.1813 -10.1809 -10.1807 -10.1772
-10.1705  -0.9897  -0.8379  -0.7893  -0.7373  -0.7203  -0.6301  -0.6032
 -0.5845  -0.5435  -0.4915  -0.4729  -0.4409  -0.4362  -0.4255  -0.4110
 -0.3969  -0.3585  -0.3415  -0.3345  -0.2857  -0.2260  -0.2098
 -- Virtual --
 -0.0240   0.0068   0.0122   0.0259   0.0317   0.0458   0.0463   0.0474
  0.0689   0.0710   0.0749   0.0752   0.0945   0.0988   0.1153   0.1162
  0.1208   0.1346   0.1438   0.1461   0.1607   0.1673   0.1716   0.1718
  0.1765   0.1848   0.1923   0.1930   0.2017   0.2049   0.2054   0.2068
  0.2231   0.2286   0.2362   0.2425   0.2440   0.2474   0.2601   0.2663
  0.2769   0.2772   0.2821   0.2958   0.2989   0.3086   0.3205   0.3329
  0.3466   0.3633   0.3741   0.3955   0.4254   0.4464   0.5087   0.5624
  0.5981   0.6779   0.6780   0.7018   0.7132   0.7238   0.7304   0.7371
  0.7397   0.7553   0.7556   0.7780   0.7919   0.7933   0.8139   0.8531
  0.8918   0.8986   0.9118   0.9404   0.9469   0.9551   0.9597   0.9876
  0.9958   1.0320   1.0498   1.0624   1.0918   1.1114   1.1116   1.1686
  1.1775   1.2006   1.2233   1.2343   1.2409   1.3141   1.3178   1.3397
  1.3615   1.4025   1.4072   1.4354   1.4540   1.4698   1.4900   1.4933
  1.5341   1.5806   1.6415   1.7760   1.8210   1.8838   1.8858   1.9007
  1.9148   1.9807   1.9886   2.0037   2.0377   2.0551   2.1208   2.1322
  2.1504   2.1780   2.2253   2.2352   2.2490   2.2626   2.2961   2.3606
  2.4003   2.4431   2.5249   2.5399   2.6211   2.6255   2.6433   2.6714
  2.7109   2.7864   2.8235   2.8296   2.9497   2.9637   3.0882   3.2186
  3.3814   4.1440   4.2407   4.2939   4.3176   4.3580   4.3981   4.4752
  4.5174   4.7697
 --------------------------------------------------------------
 
          Ground-State Mulliken Net Atomic Charges

     Atom                 Charge (a.u.)
  ----------------------------------------
      1 C                    -0.031655
      2 C                    -0.464589
      3 C                    -0.200638
      4 C                    -1.076307
      5 C                     1.471983
      6 C                    -0.707461
      7 N                    -0.427732
      8 C                     0.015204
      9 C                    -0.219410
     10 H                     0.427101
     11 H                     0.208920
     12 H                     0.209628
     13 H                     0.196636
     14 H                     0.198820
     15 H                     0.194628
     16 H                     0.204873
  ----------------------------------------
  Sum of atomic charges =     0.000000

 -----------------------------------------------------------------
                    Cartesian Multipole Moments
 -----------------------------------------------------------------
    Charge (ESU x 10^10)
                -0.0000
    Dipole Moment (Debye)
         X      -1.5930      Y       1.6028      Z       0.0008
       Tot       2.2597
    Quadrupole Moments (Debye-Ang)
        XX     -44.8025     XY      -3.2622     YY     -43.5876
        XZ      -0.0021     YZ       0.0024     ZZ     -58.8339
    Octopole Moments (Debye-Ang^2)
       XXX     -15.0499    XXY       8.6002    XYY      -7.9752
       YYY      10.6846    XXZ       0.0030    XYZ      -0.0048
       YYZ       0.0028    XZZ      -2.2856    YZZ       2.0651
       ZZZ      -0.0023
    Hexadecapole Moments (Debye-Ang^3)
      XXXX    -809.4696   XXXY     -22.0187   XXYY    -196.0475
      XYYY     -19.9555   YYYY    -372.0407   XXXZ      -0.0071
      XXYZ       0.0088   XYYZ      -0.0072   YYYZ       0.0075
      XXZZ    -189.7693   XYZZ      -3.8768   YYZZ     -95.1456
      XZZZ       0.0041   YZZZ      -0.0021   ZZZZ     -71.8743
 -----------------------------------------------------------------
 Calculating analytic gradient of the CIS energy
 CIS relaxed dipole moment
            1
    1  -1.6771572
    2   0.4607417
    3  -0.0000745
	Magnitude:	 1.739 au	 4.421 Debye
 CIS 2 State Energy is -363.5131698322
 Gradient of the state energy (including CIS Excitation Energy)
            1           2           3           4           5           6
    1   0.0003828  -0.0175997   0.0222260  -0.0195664  -0.0116326  -0.0061592
    2  -0.0316827   0.0410245  -0.0081440   0.0277165  -0.0374250   0.0047227
    3   0.0000024   0.0000011  -0.0000060   0.0000108   0.0000021   0.0000011
            7           8           9          10          11          12
    1   0.0134411  -0.0020642   0.0185039   0.0016480   0.0011509   0.0005089
    2   0.0298065   0.0063111  -0.0304568  -0.0025591   0.0001470  -0.0002907
    3  -0.0000269   0.0000010   0.0000086   0.0000071  -0.0000011   0.0000002
           13          14          15          16
    1  -0.0010043   0.0007458  -0.0006294   0.0000484
    2   0.0004151  -0.0007601   0.0001190   0.0010560
    3  -0.0000001   0.0000014  -0.0000007  -0.0000010
 Gradient time:  CPU 21.86 s  wall 5.49 s
 Geometry Optimization Parameters
   NAtoms,    NIC,     NZ,  NCons,   NDum,   NFix, NCnnct, MaxDiis
       16     116       0       0       0       0       0       0

 Cartesian Hessian Update
 Hessian updated using BFGS update


** GEOMETRY OPTIMIZATION IN DELOCALIZED INTERNAL COORDINATES **
   Searching for a Minimum

   Optimization Cycle:   5

                       Coordinates (Angstroms)
     ATOM                X               Y               Z
      1  C         2.1671233585   -0.6979188172   -0.0000044171
      2  C         2.1436843199    0.7313738147    0.0000225741
      3  C         0.9306998428    1.4500363924    0.0000208500
      4  C        -0.2510231885    0.6811919811    0.0000251980
      5  C        -0.2560297533   -0.7725233496   -0.0000102985
      6  C         0.9713100468   -1.4662062971   -0.0000204527
      7  N        -1.5691898803    1.0844287273   -0.0000696300
      8  C        -1.6154118359   -1.1737870309   -0.0000079600
      9  C        -2.3982353571   -0.0232225013    0.0001052276
     10  H        -1.8837629652    2.0422570655    0.0005006217
     11  H        -1.9937738471   -2.1874164117   -0.0000834241
     12  H        -3.4722784557    0.0907438669    0.0001247479
     13  H         3.0826335215    1.2759767242    0.0000234994
     14  H         0.9152564586    2.5351246998   -0.0000211773
     15  H         3.1261054267   -1.2070121379   -0.0000383255
     16  H         1.0059872596   -2.5504942336   -0.0000410523
   Point Group: c1    Number of degrees of freedom:    42


   Energy is   -363.513169832

 Hessian updated using BFGS update

 41 Hessian modes will be used to form the next step
  Hessian Eigenvalues:
     0.018593    0.019738    0.020011    0.020794    0.021683    0.022200
     0.022636    0.023004    0.023236    0.023608    0.023851    0.024127
     0.159048    0.159964    0.160000    0.160000    0.160001    0.160217
     0.160514    0.220110    0.223736    0.242116    0.246228    0.290147
     0.357139    0.357227    0.357847    0.358009    0.363948    0.364226
     0.372549    0.406519    0.426894    0.432457    0.455639    0.459515
     0.471734    0.474578    0.486369    1.043507    2.384129

 Minimum search - taking simple RFO step
 Searching for Lamda that Minimizes Along All modes
 Value Taken    Lamda =  -0.00207971
 Step Taken.  Stepsize is  0.038117

                             Maximum     Tolerance    Cnvgd?
         Gradient           0.023611      0.000300      NO
         Displacement       0.017456      0.001200      NO
         Energy change      0.000186      0.000001      NO


 New Cartesian Coordinates Obtained by Inverse Iteration

 Displacement from previous Coordinates is:  0.053453
 ----------------------------------------------------------------
             Standard Nuclear Orientation (Angstroms)
    I     Atom           X                Y                Z
 ----------------------------------------------------------------
    1      C       2.1732155559    -0.6947505772    -0.0000179166
    2      C       2.1512327071     0.7295288542     0.0000106791
    3      C       0.9308640657     1.4498591242     0.0000284733
    4      C      -0.2490894558     0.6778465258     0.0000344212
[...]
 Gradient of the state energy (including CIS Excitation Energy)
            1           2           3           4           5           6
    1   0.0002766   0.0000204  -0.0011867   0.0026720   0.0004758   0.0014456
    2   0.0034128  -0.0054847   0.0021891  -0.0069884   0.0052306  -0.0013957
    3   0.0000003  -0.0000002  -0.0000000  -0.0000002   0.0000001  -0.0000001
            7           8           9          10          11          12
    1  -0.0068448   0.0033884   0.0001766  -0.0003117  -0.0001106  -0.0000615
    2  -0.0038121  -0.0019148   0.0083334   0.0001821   0.0000030   0.0000795
    3  -0.0000002   0.0000000   0.0000000   0.0000001   0.0000001   0.0000001
           13          14          15          16
    1   0.0000711  -0.0000449   0.0000380  -0.0000044
    2   0.0000911   0.0000185   0.0000925  -0.0000368
    3  -0.0000000   0.0000001  -0.0000000  -0.0000001
 Gradient time:  CPU 25.15 s  wall 8.60 s
 Geometry Optimization Parameters
   NAtoms,    NIC,     NZ,  NCons,   NDum,   NFix, NCnnct, MaxDiis
       16     116       0       0       0       0       0       0

 Cartesian Hessian Update
 Hessian updated using BFGS update


** GEOMETRY OPTIMIZATION IN DELOCALIZED INTERNAL COORDINATES **
   Searching for a Minimum

   Optimization Cycle:  49

                       Coordinates (Angstroms)
     ATOM                X               Y               Z
      1  C         2.1722149897   -0.6972884228   -0.0000439291
      2  C         2.1488033526    0.7316270106    0.0000172714
      3  C         0.9323142892    1.4512773033    0.0000713288
      4  C        -0.2507809121    0.6806354172    0.0000646779
      5  C        -0.2558541400   -0.7728894127    0.0000066267
      6  C         0.9737826397   -1.4674105756   -0.0000515844
      7  N        -1.5712752872    1.0801465016    0.0001088781
      8  C        -1.6182796841   -1.1717009494    0.0000264667
      9  C        -2.4073910880   -0.0220474259    0.0000884250
     10  H        -1.8856030752    2.0386381839    0.0001591887
     11  H        -1.9977775122   -2.1855799564    0.0000000111
     12  H        -3.4821620148    0.0931265739    0.0001244449
     13  H         3.0895064431    1.2745419677    0.0000216266
     14  H         0.9149218619    2.5370291889    0.0001204943
     15  H         3.1323537407   -1.2051488014   -0.0000873461
     16  H         1.0083213480   -2.5524041103   -0.0001005993
   Point Group: c1    Number of degrees of freedom:    42


   Energy is   -363.513725412

 Hessian updated using BFGS update

 41 Hessian modes will be used to form the next step
  Hessian Eigenvalues:
     0.018593    0.019738    0.020011    0.020794    0.021683    0.022200
     0.022636    0.023236    0.023608    0.023851    0.023984    0.024128
     0.159466    0.160013    0.160031    0.160148    0.160418    0.161111
     0.161652    0.221841    0.228418    0.244798    0.247003    0.293019
     0.357186    0.357392    0.357989    0.358051    0.363998    0.364497
     0.373041    0.406619    0.427187    0.440378    0.456728    0.467360
     0.471881    0.481148    0.491802    3.734555   57.090978
**WARNING** Magnitude of eigenvalue  41 too large.  Replaced by    25.000000

 Minimum search - taking simple RFO step
 Searching for Lamda that Minimizes Along All modes
 Value Taken    Lamda =  -0.00001122
 Step Taken.  Stepsize is  0.001501

                             Maximum     Tolerance    Cnvgd?
         Gradient           0.004646      0.000300      NO
         Displacement       0.000564      0.001200     YES
         Energy change     -0.000774      0.000001      NO


 New Cartesian Coordinates Obtained by Inverse Iteration

 Displacement from previous Coordinates is:  0.001756
 ----------------------------------------------------------------
             Standard Nuclear Orientation (Angstroms)
    I     Atom           X                Y                Z
 ----------------------------------------------------------------
    1      C       2.1721505849    -0.6975014444    -0.0000446445
    2      C       2.1486185679     0.7317837819     0.0000175436
    3      C       0.9324155268     1.4514341069     0.0000720945
    4      C      -0.2508558028     0.6808912803     0.0000652875
    5      C      -0.2559333592    -0.7730294649     0.0000070929
    6      C       0.9736618880    -1.4675299337    -0.0000522658
    7      N      -1.5712344119     1.0804087787     0.0001119668
    8      C      -1.6181682215    -1.1717789756     0.0000271459
    9      C      -2.4071254638    -0.0221776513     0.0000888501
   10      H      -1.8856865480     2.0388227293     0.0001487065
   11      H      -1.9977727885    -2.1856166563     0.0000013058
   12      H      -3.4819373302     0.0927595609     0.0001270899
   13      H       3.0893588467     1.2746502951     0.0000221851
   14      H       0.9151663088     2.5371857474     0.0001248179
   15      H       3.1323453500    -1.2052269732    -0.0000883361
   16      H       1.0080918040    -2.5525226884    -0.0001028590
 ----------------------------------------------------------------
 Molecular Point Group                 C1    NOp =  1
 Largest Abelian Subgroup              C1    NOp =  1
 Nuclear Repulsion Energy =         396.77588106 hartrees
 There are       31 alpha and       31 beta electrons
 Applying Cartesian multipole field
    Component          Value
    ---------          -----
     (2,0,0)        1.00000E-11
     (0,2,0)        2.00000E-11
     (0,0,2)       -3.00000E-11
 Nucleus-field energy     =     0.0000000120 hartrees
 Requested basis set is 6-31+G(d)
 There are 59 shells and 185 basis functions
 A cutoff of  1.0D-12 yielded   1656 shell pairs
 There are     17099 function pairs
 Smallest overlap matrix eigenvalue = 1.44E-06
 Guess MOs from SCF MO coefficient file

 -----------------------------------------------------------------------
  General SCF calculation program by
  Eric Jon Sundstrom, Paul Horn, Yuezhi Mao, Dmitri Zuev, Alec White,
  David Stuck, Shaama M.S., Shane Yost, Joonho Lee, David Small,
  Daniel Levine, Susi Lehtola, Hugh Burton, Evgeny Epifanovsky,
  Bang C. Huynh
 -----------------------------------------------------------------------
 Exchange:     0.2000 Hartree-Fock + 0.0800 Slater + 0.7200 B88
 Correlation:  0.1900 PW92 + 0.8100 PW91
 Using SG-1 standard quadrature grid
 using 4 threads for integral computing
 -------------------------------------------------------
 OpenMP Integral computing Module                
 Release: version 1.0, May 2013, Q-Chem Inc. Pittsburgh 
 -------------------------------------------------------
 A restricted SCF calculation will be
 performed using DIIS
 SCF converges when DIIS error is below 1.0e-08
 ---------------------------------------
  Cycle       Energy         DIIS error
 ---------------------------------------
    1    -363.6891636136      8.05e-06  
    2    -363.6891639196      2.29e-06  
    3    -363.6891639097      2.73e-06  
    4    -363.6891639410      2.93e-07  
    5    -363.6891639413      1.78e-07  
    6    -363.6891639414      2.97e-08  
    7    -363.6891639414      1.98e-08  
    8    -363.6891639414      2.82e-09  Convergence criterion met
 ---------------------------------------
 SCF time:   CPU 29.01s  wall 11.00s 
 SCF   energy in the final basis set =     -363.6891639414
 Total energy in the final basis set =     -363.6891639414
 
 Direct TDDFT/TDA calculation will be performed
 Exchange:     0.2000 Hartree-Fock + 0.0800 Slater + 0.7200 B88
 Correlation:  0.1900 PW92 + 0.8100 PW91
 Using SG-1 standard quadrature grid
 Singlet excitation energies requested
 CIS energy converged when residual is below 10e- 6
 ---------------------------------------------------
 Iter    Rts Conv    Rts Left    Ttl Dev     Max Dev
 ---------------------------------------------------
   1         0           3      0.003779    0.001888
   2         0           3      0.002027    0.001365
   3         0           3      0.000643    0.000474
   4         0           3      0.000196    0.000140
   5         0           3      0.000056    0.000033
   6         1           2      0.000015    0.000008
   7         1           2      0.000005    0.000003
   8         3           0      0.000001    0.000001    Roots Converged
 ---------------------------------------------------
 
 ---------------------------------------------------
         TDDFT/TDA Excitation Energies              
 ---------------------------------------------------

 Excited state   1: excitation energy (eV) =    4.7701
 Total energy for state  1:                  -363.51386421 au
    Multiplicity: Singlet
    Trans. Mom.: -0.6457 X   0.6715 Y   0.0000 Z
    Strength   :     0.1014258663
    D(   30) --> V(    3) amplitude = -0.2612
    D(   31) --> V(    1) amplitude =  0.9075

 Excited state   2: excitation energy (eV) =    4.7736
 Total energy for state  2:                  -363.51373616 au
    Multiplicity: Singlet
    Trans. Mom.:  0.3941 X   0.2022 Y   0.0000 Z
    Strength   :     0.0229476774
    D(   30) --> V(    1) amplitude =  0.7757
    D(   31) --> V(    3) amplitude =  0.6121

 Excited state   3: excitation energy (eV) =    5.1032
 Total energy for state  3:                  -363.50162347 au
    Multiplicity: Singlet
    Trans. Mom.:  0.0000 X   0.0000 Y  -0.1377 Z
    Strength   :     0.0023694603
    D(   31) --> V(    2) amplitude =  0.9955
 
 ---------------------------------------------------
 Calculating Relaxed Density
 ---------------------------------------------------
 Iter    Rts Conv    Rts Left    Ttl Dev     Max Dev
 ---------------------------------------------------
   1         0           3      0.001552    0.000827
   2         0           3      0.000545    0.000262
   3         0           3      0.000151    0.000070
   4         0           3      0.000045    0.000024
   5         1           2      0.000008    0.000004
   6         1           2      0.000003    0.000001
   7         3           0      0.000000    0.000000    Roots Converged
 ---------------------------------------------------
  SETman timing summary (seconds)
  CPU time               136.37s
  System time              0.00s
  Wall time               48.02s
 
 --------------------------------------------------------------
 
                    Orbital Energies (a.u.)
 --------------------------------------------------------------
 
 Alpha MOs
 -- Occupied --
-14.3819 -10.2169 -10.2169 -10.1871 -10.1822 -10.1817 -10.1815 -10.1779
-10.1709  -0.9892  -0.8372  -0.7882  -0.7371  -0.7201  -0.6303  -0.6026
 -0.5840  -0.5431  -0.4919  -0.4734  -0.4399  -0.4356  -0.4251  -0.4106
 -0.3976  -0.3588  -0.3415  -0.3342  -0.2851  -0.2264  -0.2095
 -- Virtual --
 -0.0250   0.0068   0.0119   0.0258   0.0317   0.0455   0.0461   0.0473
  0.0689   0.0710   0.0748   0.0751   0.0945   0.0987   0.1152   0.1160
  0.1207   0.1345   0.1437   0.1462   0.1606   0.1670   0.1713   0.1717
  0.1761   0.1845   0.1918   0.1925   0.2017   0.2042   0.2052   0.2068
  0.2230   0.2281   0.2360   0.2426   0.2436   0.2472   0.2597   0.2661
  0.2766   0.2773   0.2818   0.2952   0.2982   0.3076   0.3198   0.3325
  0.3461   0.3626   0.3724   0.3949   0.4235   0.4462   0.5080   0.5607
  0.5965   0.6777   0.6777   0.7018   0.7131   0.7240   0.7290   0.7362
  0.7396   0.7544   0.7554   0.7778   0.7908   0.7930   0.8126   0.8527
  0.8913   0.8984   0.9103   0.9408   0.9465   0.9547   0.9596   0.9869
  0.9951   1.0319   1.0496   1.0628   1.0918   1.1108   1.1110   1.1677
  1.1764   1.2004   1.2228   1.2344   1.2406   1.3130   1.3175   1.3404
  1.3604   1.4010   1.4054   1.4345   1.4562   1.4696   1.4895   1.4921
  1.5338   1.5783   1.6374   1.7771   1.8188   1.8811   1.8854   1.8986
  1.9143   1.9806   1.9866   2.0011   2.0336   2.0493   2.1187   2.1289
  2.1476   2.1800   2.2244   2.2324   2.2506   2.2575   2.2929   2.3566
  2.3974   2.4418   2.5216   2.5378   2.6196   2.6219   2.6423   2.6679
  2.7087   2.7828   2.8191   2.8294   2.9502   2.9596   3.0827   3.2176
  3.3750   4.1429   4.2383   4.2925   4.3172   4.3565   4.3981   4.4742
  4.5166   4.7678
 --------------------------------------------------------------
 
          Ground-State Mulliken Net Atomic Charges

     Atom                 Charge (a.u.)
  ----------------------------------------
      1 C                    -0.032112
      2 C                    -0.461545
      3 C                    -0.200479
      4 C                    -1.070121
      5 C                     1.467287
      6 C                    -0.707088
      7 N                    -0.427827
      8 C                     0.003945
      9 C                    -0.214100
     10 H                     0.426567
     11 H                     0.208372
     12 H                     0.210992
     13 H                     0.197038
     14 H                     0.199009
     15 H                     0.194934
     16 H                     0.205129
  ----------------------------------------
  Sum of atomic charges =     0.000000

 -----------------------------------------------------------------
                    Cartesian Multipole Moments
 -----------------------------------------------------------------
    Charge (ESU x 10^10)
                -0.0000
    Dipole Moment (Debye)
         X      -1.5888      Y       1.6062      Z       0.0001
       Tot       2.2592
    Quadrupole Moments (Debye-Ang)
        XX     -44.6718     XY      -3.2795     YY     -43.6650
        XZ      -0.0005     YZ       0.0007     ZZ     -58.8845
    Octopole Moments (Debye-Ang^2)
       XXX     -15.2968    XXY       8.6529    XYY      -7.8592
       YYY      10.6791    XXZ      -0.0008    XYZ      -0.0003
       YYZ      -0.0011    XZZ      -2.2840    YZZ       2.0826
       ZZZ      -0.0056
    Hexadecapole Moments (Debye-Ang^3)
      XXXX    -810.6266   XXXY     -22.2119   XXYY    -196.9736
      XYYY     -20.0267   YYYY    -372.4097   XXXZ       0.0038
      XXYZ       0.0002   XYYZ       0.0017   YYYZ      -0.0028
      XXZZ    -190.6679   XYZZ      -3.9270   YYZZ     -95.2303
      XZZZ       0.0108   YZZZ      -0.0083   ZZZZ     -72.0204
 -----------------------------------------------------------------
 Calculating analytic gradient of the CIS energy
 CIS relaxed dipole moment
            1
    1  -0.7811855
    2   0.5147706
    3   0.0000417
	Magnitude:	 0.936 au	 2.378 Debye
 CIS 2 State Energy is -363.5137361640
 Gradient of the state energy (including CIS Excitation Energy)
            1           2           3           4           5           6
    1   0.0004796  -0.0006861  -0.0005435   0.0025333   0.0000924   0.0015133
    2   0.0028873  -0.0050941   0.0024502  -0.0075031   0.0049382  -0.0015873
    3   0.0000003  -0.0000002  -0.0000001  -0.0000003   0.0000001  -0.0000001
            7           8           9          10          11          12
    1  -0.0079276   0.0041717   0.0008244  -0.0003234  -0.0001140  -0.0000942
    2  -0.0035775  -0.0021155   0.0091530   0.0001214   0.0000045   0.0000718
    3   0.0000000   0.0000001   0.0000000  -0.0000000   0.0000001   0.0000002
           13          14          15          16
    1   0.0000739  -0.0000262   0.0000386  -0.0000121
    2   0.0001354   0.0000125   0.0001251  -0.0000220
    3  -0.0000000   0.0000001  -0.0000000  -0.0000001
 Gradient time:  CPU 25.16 s  wall 8.68 s
 Geometry Optimization Parameters
   NAtoms,    NIC,     NZ,  NCons,   NDum,   NFix, NCnnct, MaxDiis
       16     116       0       0       0       0       0       0

 Cartesian Hessian Update
 Hessian updated using BFGS update


** GEOMETRY OPTIMIZATION IN DELOCALIZED INTERNAL COORDINATES **
   Searching for a Minimum

   Optimization Cycle:  50

                       Coordinates (Angstroms)
     ATOM                X               Y               Z
      1  C         2.1721505849   -0.6975014444   -0.0000446445
      2  C         2.1486185679    0.7317837819    0.0000175436
      3  C         0.9324155268    1.4514341069    0.0000720945
      4  C        -0.2508558028    0.6808912803    0.0000652875
      5  C        -0.2559333592   -0.7730294649    0.0000070929
      6  C         0.9736618880   -1.4675299337   -0.0000522658
      7  N        -1.5712344119    1.0804087787    0.0001119668
      8  C        -1.6181682215   -1.1717789756    0.0000271459
      9  C        -2.4071254638   -0.0221776513    0.0000888501
     10  H        -1.8856865480    2.0388227293    0.0001487065
     11  H        -1.9977727885   -2.1856166563    0.0000013058
     12  H        -3.4819373302    0.0927595609    0.0001270899
     13  H         3.0893588467    1.2746502951    0.0000221851
     14  H         0.9151663088    2.5371857474    0.0001248179
     15  H         3.1323453500   -1.2052269732   -0.0000883361
     16  H         1.0080918040   -2.5525226884   -0.0001028590
   Point Group: c1    Number of degrees of freedom:    42


   Energy is   -363.513736164

 Hessian updated using BFGS update

 42 Hessian modes will be used to form the next step
  Hessian Eigenvalues:
     0.018593    0.019738    0.020011    0.020794    0.021683    0.022200
     0.022636    0.023004    0.023236    0.023608    0.023851    0.023984
     0.024128    0.158694    0.159474    0.160036    0.160041    0.160149
     0.160681    0.162030    0.220832    0.228091    0.243824    0.247277
     0.291903    0.357044    0.357307    0.357712    0.358058    0.363204
     0.364010    0.365493    0.401418    0.426528    0.440191    0.457088
     0.465237    0.471704    0.473494    0.491044    0.492360   29.138143
**WARNING** Magnitude of eigenvalue  42 too large.  Replaced by    25.000000

 Minimum search - taking simple RFO step
 Searching for Lamda that Minimizes Along All modes
 Value Taken    Lamda =  -0.00012750
 Step Taken.  Stepsize is  0.017136

                             Maximum     Tolerance    Cnvgd?
         Gradient           0.005336      0.000300      NO
         Displacement       0.006681      0.001200      NO
         Energy change     -0.000011      0.000001      NO


 New Cartesian Coordinates Obtained by Inverse Iteration

 Displacement from previous Coordinates is:  0.018697
 ----------------------------------------------------------------
             Standard Nuclear Orientation (Angstroms)
    I     Atom           X                Y                Z
 ----------------------------------------------------------------
    1      C       2.1710712617    -0.6995553356    -0.0000525796
    2      C       2.1468685152     0.7338497122     0.0000181686
    3      C       0.9336875276     1.4530686792     0.0000828017
    4      C      -0.2518717023     0.6837064648     0.0000773521
    5      C      -0.2570098097    -0.7749840628     0.0000151069
    6      C       0.9722478554    -1.4690437252    -0.0000546901
    7      N      -1.5706281161     1.0832570201     0.0001529855
    8      C      -1.6171666443    -1.1725830652     0.0000291030
    9      C      -2.4043097890    -0.0238176989     0.0000937964
   10      H      -1.8866504799     2.0407629048     0.0000454497
   11      H      -1.9975586214    -2.1860965155     0.0000033957
   12      H      -3.4794905580     0.0892666034     0.0001485826
   13      H       3.0882052834     1.2757532482     0.0000215659
   14      H       0.9177574274     2.5387981985     0.0001625827
   15      H       3.1318751633    -1.2058201989    -0.0001013508
   16      H       1.0060676381    -2.5540097365    -0.0001162890
 ----------------------------------------------------------------
 Molecular Point Group                 C1    NOp =  1
 Largest Abelian Subgroup              C1    NOp =  1
 Nuclear Repulsion Energy =         396.69255451 hartrees
 There are       31 alpha and       31 beta electrons


 *******************************************
 **  MAXIMUM OPTIMIZATION CYCLES REACHED  **
 *******************************************

 Q-Chem fatal error occurred in module 0, line  455:

 Maximum optimization cycles reached

