
Running Job 1 of 1 QfuncsCAM-B3LYP-VI-1st.in
qchem QfuncsCAM-B3LYP-VI-1st.in_119046.0 /scratch/scaparas/job_3584575/qchem119046/ 0
/cm/shared/apps/spack/cpu/opt/spack/linux-centos8-zen2/gcc-10.2.0/qchem-5.3-5qddma6gy34jvefiv7mbcb7qm253n45r/exe/qcprog.exe_s QfuncsCAM-B3LYP-VI-1st.in_119046.0 /scratch/scaparas/job_3584575/qchem119046/
                  Welcome to Q-Chem
     A Quantum Leap Into The Future Of Chemistry


 Q-Chem 5.3, Q-Chem, Inc., Pleasanton, CA (2020)

 License issued to: University of California, San Diego (site)

 Yihan Shao,  Zhengting Gan,  E. Epifanovsky,  A. T. B. Gilbert,  M. Wormit,  
 J. Kussmann,  A. W. Lange,  A. Behn,  Jia Deng,  Xintian Feng,  D. Ghosh,  
 M. Goldey,  P. R. Horn,  L. D. Jacobson,  I. Kaliman,  T. Kus,  A. Landau,  
 Jie Liu,  E. I. Proynov,  R. M. Richard,  R. P. Steele,  E. J. Sundstrom,  
 H. L. Woodcock III,  P. M. Zimmerman,  D. Zuev,  B. Alam,  B. Albrecht,  
 A. Aldossary,  E. Alguire,  S. A. Baeppler,  D. Barton,  Z. Benda,  
 Y. A. Bernard,  E. J. Berquist,  K. B. Bravaya,  H. Burton,  K. Carter-Fenk,  
 D. Casanova,  Chun-Min Chang,  Yunqing Chen,  A. Chien,  K. D. Closser,  
 M. P. Coons,  S. Coriani,  S. Dasgupta,  A. L. Dempwolff,  M. Diedenhofen,  
 Hainam Do,  R. G. Edgar,  Po-Tung Fang,  S. Faraji,  S. Fatehi,  
 Qingguo Feng,  J. Fosso-Tande,  J. Gayvert,  Qinghui Ge,  A. Ghysels,  
 G. Gidofalvi,  J. Gomes,  J. Gonthier,  S. Gulania,  A. Gunina,  D. Hait,  
 M. W. D. Hanson-Heine,  S. Hammes-Schiffer,  P. H. P. Harbach,  
 A. W. Hauser,  M. F. Herbst,  J. E. Herr,  E. G. Hohenstein,  Z. C. Holden,  
 S. Houck,  Kerwin Hui,  B. C. Huynh,  M. Ivanov,  T.-C. Jagau,  Hyunjun Ji,  
 B. Kaduk,  K. Khistyaev,  Jaehoon Kim,  P. Klunzinger,  K. Koh,  
 D. Kosenkov,  L. Koulias,  T. Kowalczyk,  C. M. Krauter,  A. Kunitsa,  
 Ka Un Lao,  A. Laurent,  K. V. Lawler,  Joonho Lee,  D. Lefrancois,  
 S. Lehtola,  D. S. Levine,  Yi-Pei Li,  You-Sheng Lin,  Fenglai Liu,  
 Kuan-Yu Liu,  E. Livshits,  M. Loipersberger,  A. Luenser,  P. Manohar,  
 E. Mansoor,  S. F. Manzer,  Shan-Ping Mao,  Yuezhi Mao,  N. Mardirossian,  
 A. V. Marenich,  T. Markovich,  L. A. Martinez-Martinez,  S. A. Maurer,  
 N. J. Mayhall,  S. C. McKenzie,  J.-M. Mewes,  P. Morgante,  A. F. Morrison,  
 J. W. Mullinax,  K. Nanda,  T. S. Nguyen-Beck,  R. Olivares-Amaya,  
 K. J. Oosterbaan,  J. A. Parkhill,  S. K. Paul,  F. Pavosevic,  Zheng Pei,  
 T. M. Perrine,  F. Plasser,  P. Pokhilko,  S. Prager,  A. Prociuk,  
 E. Ramos,  B. Rana,  D. R. Rehn,  F. Rob,  E. Rossomme,  M. Scheurer,  
 M. Schneider,  N. Sergueev,  S. M. Sharada,  S. Sharma,  W. Skomorowski,  
 D. W. Small,  T. Stauch,  C. J. Stein,  T. Stein,  Yu-Chuan Su,  
 S. P. Veccham,  Zhen Tao,  A. J. W. Thom,  A. Tkatchenko,  T. Tsuchimochi,  
 N. M. Tubman,  L. Vogt,  M. L. Vidal,  O. Vydrov,  M. A. Watson,  J. Wenzel,  
 M. de Wergifosse,  T. A. Wesolowski,  A. White,  J. Witte,  A. Yamada,  
 Jun Yang,  K. Yao,  S. Yeganeh,  S. R. Yost,  Zhi-Qiang You,  A. Zech,  
 Igor Ying Zhang,  Xing Zhang,  Yan Zhao,  Ying Zhu,  B. R. Brooks,  
 G. K. L. Chan,  C. J. Cramer,  M. S. Gordon,  W. J. Hehre,  A. Klamt,  
 M. W. Schmidt,  C. D. Sherrill,  D. G. Truhlar,  A. Aspuru-Guzik,  R. Baer,  
 A. T. Bell,  N. A. Besley,  Jeng-Da Chai,  A. E. DePrince, III,  
 R. A. DiStasio Jr.,  A. Dreuw,  B. D. Dunietz,  T. R. Furlani,  
 Chao-Ping Hsu,  Yousung Jung,  Jing Kong,  D. S. Lambrecht,  WanZhen Liang,  
 C. Ochsenfeld,  V. A. Rassolov,  L. V. Slipchenko,  J. E. Subotnik,  
 T. Van Voorhis,  J. M. Herbert,  A. I. Krylov,  P. M. W. Gill,  M. Head-Gordon

 Contributors to earlier versions of Q-Chem not listed above: 
 R. D. Adamson,  B. Austin,  J. Baker,  G. J. O. Beran,  K. Brandhorst,  
 S. T. Brown,  E. F. C. Byrd,  A. K. Chakraborty,  C.-L. Cheng,  
 Siu Hung Chien,  D. M. Chipman,  D. L. Crittenden,  H. Dachsel,  
 R. J. Doerksen,  A. D. Dutoi,  L. Fusti-Molnar,  W. A. Goddard III,  
 A. Golubeva-Zadorozhnaya,  S. R. Gwaltney,  G. Hawkins,  A. Heyden,  
 S. Hirata,  G. Kedziora,  F. J. Keil,  C. Kelley,  Jihan Kim,  R. A. King,  
 R. Z. Khaliullin,  P. P. Korambath,  W. Kurlancheek,  A. M. Lee,  M. S. Lee,  
 S. V. Levchenko,  Ching Yeh Lin,  D. Liotard,  R. C. Lochan,  I. Lotan,  
 P. E. Maslen,  N. Nair,  D. P. O'Neill,  D. Neuhauser,  E. Neuscamman,  
 C. M. Oana,  R. Olson,  B. Peters,  R. Peverati,  P. A. Pieniazek,  
 Y. M. Rhee,  J. Ritchie,  M. A. Rohrdanz,  E. Rosta,  N. J. Russ,  
 H. F. Schaefer III,  N. E. Schultz,  N. Shenvi,  A. C. Simmonett,  A. Sodt,  
 D. Stuck,  K. S. Thanthiriwatte,  V. Vanovschi,  Tao Wang,  A. Warshel,  
 C. F. Williams,  Q. Wu,  X. Xu,  W. Zhang

 Please cite Q-Chem as follows:
 Y. Shao et al., Mol. Phys. 113, 184-215 (2015)
 DOI: 10.1080/00268976.2014.952696

 Q-Chem 5.3.1 for Intel X86 EM64T Linux

 Parts of Q-Chem use Armadillo 9.800.1 (Horizon Scraper).
 http://arma.sourceforge.net/

 Q-Chem begins on Wed Jun 23 13:27:38 2021  

Host: 
0

     Scratch files written to /scratch/scaparas/job_3584575/qchem119046//
 Aug2920 |scratch|qcdevops|jenkins|workspace|build_RNUM    
Processing $rem in /cm/shared/apps/spack/cpu/opt/spack/linux-centos8-zen2/gcc-10.2.0/qchem-5.3-5qddma6gy34jvefiv7mbcb7qm253n45r/config/preferences:
Processing $rem in /home/scaparas/.qchemrc:

Checking the input file for inconsistencies... 	...done.

--------------------------------------------------------------
User input:
--------------------------------------------------------------
$molecule
0 1
C   -2.1510630    0.6892080    0.0000880
C   -2.1279270   -0.7158180    0.0000750
C   -0.9322970   -1.4131000   -0.0000110
C    0.2469110   -0.6702010   -0.0000420
C    0.2481930    0.7482990    0.0000000
C   -0.9794740    1.4235260    0.0000320
N    1.5617740   -1.0775920   -0.0002850
C    1.6201330    1.1629000   -0.0001570
C    2.3820130    0.0308060    0.0002480
H    1.8763150   -2.0300110    0.0004380
H    1.9921730    2.1730100   -0.0003480
H    3.4525490   -0.0824250    0.0004080
H   -3.0615940   -1.2620200    0.0000880
H   -0.9172520   -2.4953420   -0.0000730
H   -3.1042030    1.2007850    0.0000900
H   -1.0093480    2.5054210   -0.0000150
$end

$rem
BASIS  =  6-31+G*
GUI  =  2
JOB_TYPE  =  Optimization
METHOD  = CAM-B3LYP
SCF_CONVERGENCE  =  8
THRESH = 12
CIS_N_ROOTS  = 3
CIS_SINGLETS = true
CIS_TRIPLETS = false
CIS_STATE_DERIV = 1
MEM_STATIC = 500
MEM_TOTAL = 3000
$end
--------------------------------------------------------------
 ----------------------------------------------------------------
             Standard Nuclear Orientation (Angstroms)
    I     Atom           X                Y                Z
 ----------------------------------------------------------------
    1      C       2.1510629040    -0.6892079969     0.0000583065
    2      C       2.1279268385     0.7158180020     0.0000481775
    3      C       0.9322968051     1.4130999466    -0.0000206639
    4      C      -0.2469111607     0.6702008918    -0.0000373513
    5      C      -0.2481930942    -0.7482991083     0.0000020775
    6      C       0.9794739374    -1.4235260513     0.0000165335
    7      N      -1.5617741827     1.0775918311    -0.0002621374
    8      C      -1.6201330769    -1.1629001718    -0.0001374500
    9      C      -2.3820131241    -0.0308062080     0.0002797387
   10      H      -1.8763152174     2.0300108152     0.0004667797
   11      H      -1.9921730325    -2.1730101887    -0.0003253498
   12      H      -3.4525491271     0.0824247420     0.0004541695
   13      H       3.0615938132     1.2620200454     0.0000497686
   14      H       0.9172517540     2.4953419460    -0.0000804893
   15      H       3.1042029277    -1.2007849526     0.0000467087
   16      H       1.0093479871    -2.5054210498    -0.0000328375
 ----------------------------------------------------------------
 Molecular Point Group                 C1    NOp =  1
 Largest Abelian Subgroup              C1    NOp =  1
 Nuclear Repulsion Energy =         401.33686680 hartrees
 There are       31 alpha and       31 beta electrons
 Requested basis set is 6-31+G(d)
 There are 59 shells and 185 basis functions

 Total QAlloc Memory Limit   3000 MB
 Mega-Array Size       489 MB
 MEM_STATIC part       500 MB
 A cutoff of  1.0D-12 yielded   1657 shell pairs
 There are     17105 function pairs
 Smallest overlap matrix eigenvalue = 1.26E-06

 Scale SEOQF with 1.000000e-01/1.000000e-01/1.000000e-01

 Standard Electronic Orientation quadrupole field applied
 Nucleus-field energy     =     0.0000000117 hartrees
 Guess from superposition of atomic densities
 Warning:  Energy on first SCF cycle will be non-variational
 SAD guess density has 62.000000 electrons

 -----------------------------------------------------------------------
  General SCF calculation program by
  Eric Jon Sundstrom, Paul Horn, Yuezhi Mao, Dmitri Zuev, Alec White,
  David Stuck, Shaama M.S., Shane Yost, Joonho Lee, David Small,
  Daniel Levine, Susi Lehtola, Hugh Burton, Evgeny Epifanovsky,
  Bang C. Huynh
 -----------------------------------------------------------------------
 Exchange:     0.1900 Hartree-Fock + 0.3500 B88 + 0.4600 muB88 + LR-HF
 Correlation:  0.1900 VWN5 + 0.8100 LYP
 Using SG-1 standard quadrature grid
 using 4 threads for integral computing
 -------------------------------------------------------
 OpenMP Integral computing Module                
 Release: version 1.0, May 2013, Q-Chem Inc. Pittsburgh 
 -------------------------------------------------------
 using 4 threads for integral computing
 -------------------------------------------------------
 OpenMP Integral computing Module                
 Release: version 1.0, May 2013, Q-Chem Inc. Pittsburgh 
 -------------------------------------------------------
 A restricted SCF calculation will be
 performed using DIIS
 SCF converges when DIIS error is below 1.0e-08
 ---------------------------------------
  Cycle       Energy         DIIS error
 ---------------------------------------
    1    -366.5269421691      5.59e-02  
    2    -363.5416758681      4.00e-03  
    3    -363.5688029305      3.49e-03  
    4    -363.6224082085      7.19e-04  
    5    -363.6241979082      3.39e-04  
    6    -363.6246703704      5.18e-05  
    7    -363.6246808351      2.11e-05  
    8    -363.6246829127      3.96e-06  
    9    -363.6246830654      2.13e-06  
   10    -363.6246830985      7.17e-07  
   11    -363.6246831040      2.81e-07  
   12    -363.6246831046      7.96e-08  
   13    -363.6246831047      3.36e-08  
   14    -363.6246831047      1.60e-08  
   15    -363.6246831047      3.55e-09  Convergence criterion met
 ---------------------------------------
 SCF time:   CPU 57.43s  wall 15.00s 
 SCF   energy in the final basis set =     -363.6246831047
 Total energy in the final basis set =     -363.6246831047
 
 Direct TDDFT/TDA calculation will be performed
 Exchange:     0.1900 Hartree-Fock + 0.3500 B88 + 0.4600 muB88 + LR-HF
 Correlation:  0.1900 VWN5 + 0.8100 LYP
 Using SG-1 standard quadrature grid
 Singlet excitation energies requested
 CIS energy converged when residual is below 10e- 6
 ---------------------------------------------------
 Iter    Rts Conv    Rts Left    Ttl Dev     Max Dev
 ---------------------------------------------------
   1         0           3      0.002309    0.001722
   2         0           3      0.000659    0.000427
   3         0           3      0.000347    0.000209
   4         0           3      0.000184    0.000095
   5         0           3      0.000214    0.000165
   6         0           3      0.000713    0.000661
   7         0           3      0.000499    0.000363
   8         0           3      0.000350    0.000265
   9         1           2      0.000147    0.000119
  10         1           2      0.000061    0.000049
  11         1           2      0.000022    0.000018
  12         1           2      0.000011    0.000009
  13         2           1      0.000004    0.000003
  14         3           0      0.000002    0.000001    Roots Converged
 ---------------------------------------------------
 
 ---------------------------------------------------
         TDDFT/TDA Excitation Energies              
 ---------------------------------------------------

 Excited state   1: excitation energy (eV) =    5.1591
 Total energy for state  1:                  -363.43508897 au
    Multiplicity: Singlet
    Trans. Mom.: -0.3310 X  -0.3500 Y  -0.0001 Z
    Strength   :     0.0293253961
    D(   30) --> V(    2) amplitude = -0.7896
    D(   31) --> V(    6) amplitude =  0.5366

 Excited state   2: excitation energy (eV) =    5.2636
 Total energy for state  2:                  -363.43124805 au
    Multiplicity: Singlet
    Trans. Mom.:  0.7982 X  -0.6298 Y  -0.0017 Z
    Strength   :     0.1333057385
    D(   30) --> V(    6) amplitude =  0.3157
    D(   31) --> V(    2) amplitude =  0.9042

 Excited state   3: excitation energy (eV) =    5.2882
 Total energy for state  3:                  -363.43034691 au
    Multiplicity: Singlet
    Trans. Mom.:  0.0080 X  -0.0064 Y   0.1613 Z
    Strength   :     0.0033840001
    D(   31) --> V(    1) amplitude =  0.9702
 
 ---------------------------------------------------
 Calculating Relaxed Density
 ---------------------------------------------------
 Iter    Rts Conv    Rts Left    Ttl Dev     Max Dev
 ---------------------------------------------------
   1         0           3      0.000943    0.000465
   2         0           3      0.000381    0.000198
   3         0           3      0.000111    0.000044
   4         0           3      0.000036    0.000017
   5         0           3      0.000011    0.000005
   6         2           1      0.000001    0.000001
   7         3           0      0.000000    0.000000    Roots Converged
 ---------------------------------------------------
  SETman timing summary (seconds)
  CPU time               216.07s
  System time              0.00s
  Wall time               54.28s
 
 --------------------------------------------------------------
 
                    Orbital Energies (a.u.)
 --------------------------------------------------------------
 
 Alpha MOs
 -- Occupied --
-14.4575 -10.2980 -10.2950 -10.2650 -10.2601 -10.2598 -10.2595 -10.2543
-10.2512  -1.0688  -0.9265  -0.8675  -0.8188  -0.8002  -0.7032  -0.6723
 -0.6591  -0.6157  -0.5552  -0.5441  -0.5077  -0.5001  -0.4970  -0.4810
 -0.4600  -0.4219  -0.4041  -0.4005  -0.3422  -0.2775  -0.2602
 -- Virtual --
  0.0245   0.0247   0.0429   0.0476   0.0622   0.0631   0.0638   0.0806
  0.0860   0.0908   0.0914   0.0940   0.1128   0.1200   0.1305   0.1318
  0.1407   0.1544   0.1674   0.1680   0.1825   0.1864   0.1947   0.1988
  0.2032   0.2170   0.2186   0.2188   0.2288   0.2360   0.2401   0.2494
  0.2509   0.2609   0.2649   0.2704   0.2736   0.2797   0.2914   0.2961
  0.3077   0.3097   0.3238   0.3384   0.3512   0.3601   0.3609   0.3770
  0.3982   0.4197   0.4300   0.4542   0.4979   0.5063   0.5718   0.6435
  0.6878   0.7288   0.7317   0.7550   0.7728   0.7765   0.7901   0.7927
  0.8012   0.8096   0.8162   0.8346   0.8494   0.8585   0.8747   0.9114
  0.9514   0.9582   0.9700   0.9937   1.0007   1.0110   1.0203   1.0423
  1.0624   1.0886   1.1060   1.1233   1.1550   1.1746   1.1806   1.2316
  1.2435   1.2694   1.2850   1.3104   1.3170   1.3824   1.3973   1.4169
  1.4323   1.4824   1.4915   1.5159   1.5377   1.5432   1.5750   1.5812
  1.6027   1.6560   1.7196   1.8625   1.9188   1.9587   1.9701   1.9946
  2.0132   2.0703   2.0734   2.0849   2.1397   2.1760   2.2182   2.2490
  2.2546   2.2743   2.3303   2.3416   2.3467   2.3621   2.3903   2.4628
  2.4910   2.5227   2.6252   2.6423   2.7139   2.7352   2.7534   2.7772
  2.8131   2.8875   2.9238   2.9359   3.0335   3.0567   3.1945   3.3216
  3.5294   4.2205   4.3266   4.3564   4.3918   4.4279   4.4650   4.5480
  4.5877   4.8596
 --------------------------------------------------------------
 
          Ground-State Mulliken Net Atomic Charges

     Atom                 Charge (a.u.)
  ----------------------------------------
      1 C                     0.021487
      2 C                    -0.462244
      3 C                    -0.120312
      4 C                    -0.775867
      5 C                     1.156029
      6 C                    -0.695367
      7 N                    -0.537449
      8 C                     0.130315
      9 C                    -0.257292
     10 H                     0.418440
     11 H                     0.195025
     12 H                     0.197793
     13 H                     0.180247
     14 H                     0.183077
     15 H                     0.178913
     16 H                     0.187206
  ----------------------------------------
  Sum of atomic charges =     0.000000

 -----------------------------------------------------------------
                    Cartesian Multipole Moments
 -----------------------------------------------------------------
    Charge (ESU x 10^10)
                -0.0000
    Dipole Moment (Debye)
         X      -1.4846      Y       1.5572      Z       0.0011
       Tot       2.1515
    Quadrupole Moments (Debye-Ang)
        XX     -45.6446     XY      -3.1668     YY     -44.7385
        XZ      -0.0032     YZ       0.0033     ZZ     -58.9022
    Octopole Moments (Debye-Ang^2)
       XXX     -14.8371    XXY       8.3326    XYY      -7.9601
       YYY      10.5457    XXZ       0.0075    XYZ      -0.0067
       YYZ       0.0021    XZZ      -1.9952    YZZ       2.0412
       ZZZ      -0.0011
    Hexadecapole Moments (Debye-Ang^3)
      XXXX    -820.3035   XXXY     -21.7369   XXYY    -197.9011
      XYYY     -19.9255   YYYY    -372.9389   XXXZ      -0.0239
      XXYZ       0.0132   XYYZ      -0.0072   YYYZ       0.0143
      XXZZ    -189.8136   XYZZ      -4.0134   YYZZ     -94.1949
      XZZZ      -0.0009   YZZZ       0.0031   ZZZZ     -74.3092
 -----------------------------------------------------------------
 Calculating analytic gradient of the CIS energy
 CIS relaxed dipole moment
            1
    1  -0.7515137
    2   0.4671113
    3   0.0000672
	Magnitude:	 0.885 au	 2.249 Debye
 CIS 1 State Energy is -363.4350889652
 Gradient of the state energy (including CIS Excitation Energy)
            1           2           3           4           5           6
    1  -0.0220561  -0.0240869   0.0114244   0.0136963   0.0084123   0.0214062
    2  -0.0037647  -0.0049673  -0.0234002  -0.0229414   0.0235646   0.0249814
    3  -0.0000015  -0.0000038   0.0000113   0.0000136   0.0000147   0.0000016
            7           8           9          10          11          12
    1  -0.0223422  -0.0074514   0.0197398   0.0011973   0.0009783   0.0027740
    2  -0.0007777   0.0017622   0.0070596  -0.0049135   0.0032098  -0.0002577
    3  -0.0000371  -0.0000280   0.0000372  -0.0000036  -0.0000088   0.0000047
           13          14          15          16
    1  -0.0020322   0.0002208  -0.0021528   0.0002722
    2  -0.0007542  -0.0022350   0.0012753   0.0021588
    3   0.0000002   0.0000008  -0.0000004  -0.0000009
 Gradient time:  CPU 38.12 s  wall 9.58 s
 Geometry Optimization Parameters
   NAtoms,    NIC,     NZ,  NCons,   NDum,   NFix, NCnnct, MaxDiis
       16     116       0       0       0       0       0       0


** GEOMETRY OPTIMIZATION IN DELOCALIZED INTERNAL COORDINATES **
   Searching for a Minimum

   Optimization Cycle:   1

                       Coordinates (Angstroms)
     ATOM                X               Y               Z
      1  C         2.1510629040   -0.6892079969    0.0000583065
      2  C         2.1279268385    0.7158180020    0.0000481775
      3  C         0.9322968051    1.4130999466   -0.0000206639
      4  C        -0.2469111607    0.6702008918   -0.0000373513
      5  C        -0.2481930942   -0.7482991083    0.0000020775
      6  C         0.9794739374   -1.4235260513    0.0000165335
      7  N        -1.5617741827    1.0775918311   -0.0002621374
      8  C        -1.6201330769   -1.1629001718   -0.0001374500
      9  C        -2.3820131241   -0.0308062080    0.0002797387
     10  H        -1.8763152174    2.0300108152    0.0004667797
     11  H        -1.9921730325   -2.1730101887   -0.0003253498
     12  H        -3.4525491271    0.0824247420    0.0004541695
     13  H         3.0615938132    1.2620200454    0.0000497686
     14  H         0.9172517540    2.4953419460   -0.0000804893
     15  H         3.1042029277   -1.2007849526    0.0000467087
     16  H         1.0093479871   -2.5054210498   -0.0000328375
   Point Group: c1    Number of degrees of freedom:    42


   Energy is   -363.435088965


 Attempting to generate delocalized internal coordinates
 Initial Hessian constructed with Jon Baker's OPTIMIZE code

 42 Hessian modes will be used to form the next step
  Hessian Eigenvalues:
     0.018594    0.019738    0.020011    0.020794    0.021683    0.022200
     0.022636    0.023004    0.023236    0.023608    0.023851    0.023984
     0.024127    0.160000    0.160000    0.160000    0.160000    0.160000
     0.160000    0.160000    0.220000    0.221879    0.226618    0.240111
     0.246509    0.357123    0.357170    0.357835    0.357899    0.364196
     0.364272    0.370088    0.384319    0.426334    0.434649    0.457693
     0.466917    0.471622    0.474685    0.475669    0.481247    0.509555

 Minimum search - taking simple RFO step
 Searching for Lamda that Minimizes Along All modes
 Value Taken    Lamda =  -0.00906606
 Step Taken.  Stepsize is  0.143693

                             Maximum     Tolerance    Cnvgd?
         Gradient           0.038528      0.000300      NO
         Displacement       0.088428      0.001200      NO
         Energy change     *********      0.000001      NO


 New Cartesian Coordinates Obtained by Inverse Iteration

 Displacement from previous Coordinates is:  0.206573
 ----------------------------------------------------------------
             Standard Nuclear Orientation (Angstroms)
    I     Atom           X                Y                Z
 ----------------------------------------------------------------
    1      C       2.1673644905    -0.6910925026     0.0000063909
    2      C       2.1576889555     0.7369249520    -0.0000027078
    3      C       0.9376372215     1.4501148458    -0.0000412623
    4      C      -0.2477371300     0.6839144781     0.0000189250
    5      C      -0.2600598140    -0.7682987428     0.0000419002
    6      C       0.9705290993    -1.4550854375     0.0000095165
    7      N      -1.5587717442     1.0761144214    -0.0000343257
    8      C      -1.6351803828    -1.1753504435     0.0000305107
    9      C      -2.4048487030    -0.0379136733     0.0000205210
   10      H      -1.8715890276     2.0349413764     0.0007328204
   11      H      -2.0093043897    -2.1897515906    -0.0000605299
   12      H      -3.4787587980     0.0808509067    -0.0000495943
   13      H       3.0981697773     1.2775126905    -0.0000182059
   14      H       0.9155511433     2.5354694815    -0.0000665488
   15      H       3.1229792179    -1.2056818474    -0.0000319694
   16      H       0.9994250352    -2.5401164221    -0.0000294594
 ----------------------------------------------------------------
 Molecular Point Group                 C1    NOp =  1
 Largest Abelian Subgroup              C1    NOp =  1
 Nuclear Repulsion Energy =         397.09296565 hartrees
 There are       31 alpha and       31 beta electrons
 Applying Cartesian multipole field
    Component          Value
    ---------          -----
     (2,0,0)        1.00000E-11
     (0,2,0)        2.00000E-11
     (0,0,2)       -3.00000E-11
 Nucleus-field energy     =     0.0000000119 hartrees
 Requested basis set is 6-31+G(d)
 There are 59 shells and 185 basis functions
 A cutoff of  1.0D-12 yielded   1656 shell pairs
 There are     17099 function pairs
 Smallest overlap matrix eigenvalue = 1.45E-06
 Guess MOs from SCF MO coefficient file

 -----------------------------------------------------------------------
  General SCF calculation program by
  Eric Jon Sundstrom, Paul Horn, Yuezhi Mao, Dmitri Zuev, Alec White,
  David Stuck, Shaama M.S., Shane Yost, Joonho Lee, David Small,
  Daniel Levine, Susi Lehtola, Hugh Burton, Evgeny Epifanovsky,
  Bang C. Huynh
 -----------------------------------------------------------------------
 Exchange:     0.1900 Hartree-Fock + 0.3500 B88 + 0.4600 muB88 + LR-HF
 Correlation:  0.1900 VWN5 + 0.8100 LYP
 Using SG-1 standard quadrature grid
 using 4 threads for integral computing
 -------------------------------------------------------
 OpenMP Integral computing Module                
 Release: version 1.0, May 2013, Q-Chem Inc. Pittsburgh 
 -------------------------------------------------------
 using 4 threads for integral computing
 -------------------------------------------------------
 OpenMP Integral computing Module                
 Release: version 1.0, May 2013, Q-Chem Inc. Pittsburgh 
 -------------------------------------------------------
 A restricted SCF calculation will be
 performed using DIIS
 SCF converges when DIIS error is below 1.0e-08
 ---------------------------------------
  Cycle       Energy         DIIS error
 ---------------------------------------
    1    -363.6177452330      8.27e-04  
    2    -363.6204721925      2.01e-04  
    3    -363.6205864128      1.46e-04  
    4    -363.6206745924      2.91e-05  
    5    -363.6206783766      1.20e-05  
    6    -363.6206793634      3.75e-06  
    7    -363.6206794995      2.21e-06  
    8    -363.6206795507      5.02e-07  
    9    -363.6206795559      3.02e-07  
   10    -363.6206795565      7.28e-08  
   11    -363.6206795566      3.76e-08  
   12    -363.6206795566      7.52e-09  Convergence criterion met
 ---------------------------------------
 SCF time:   CPU 48.42s  wall 12.00s 
 SCF   energy in the final basis set =     -363.6206795566
 Total energy in the final basis set =     -363.6206795566
 
 Direct TDDFT/TDA calculation will be performed
 Exchange:     0.1900 Hartree-Fock + 0.3500 B88 + 0.4600 muB88 + LR-HF
 Correlation:  0.1900 VWN5 + 0.8100 LYP
 Using SG-1 standard quadrature grid
 Singlet excitation energies requested
 CIS energy converged when residual is below 10e- 6
 ---------------------------------------------------
 Iter    Rts Conv    Rts Left    Ttl Dev     Max Dev
 ---------------------------------------------------
   1         0           3      0.003691    0.001738
   2         0           3      0.001057    0.000500
   3         0           3      0.000595    0.000304
   4         0           3      0.000257    0.000119
   5         0           3      0.000090    0.000041
   6         0           3      0.000042    0.000016
   7         0           3      0.000018    0.000007
   8         0           3      0.000007    0.000003
   9         2           1      0.000003    0.000002
  10         3           0      0.000002    0.000001    Roots Converged
 ---------------------------------------------------
 
 ---------------------------------------------------
         TDDFT/TDA Excitation Energies              
 ---------------------------------------------------

 Excited state   1: excitation energy (eV) =    4.9269
 Total energy for state  1:                  -363.43961957 au
    Multiplicity: Singlet
    Trans. Mom.: -0.4107 X  -0.4195 Y   0.0000 Z
    Strength   :     0.0416022167
    D(   30) --> V(    1) amplitude =  0.7879
    D(   31) --> V(    1) amplitude = -0.2374
    D(   31) --> V(    5) amplitude = -0.5078

 Excited state   2: excitation energy (eV) =    5.1419
 Total energy for state  2:                  -363.43171902 au
    Multiplicity: Singlet
    Trans. Mom.: -0.7428 X   0.6387 Y   0.0001 Z
    Strength   :     0.1208921234
    D(   30) --> V(    5) amplitude =  0.3316
    D(   31) --> V(    1) amplitude =  0.8769

 Excited state   3: excitation energy (eV) =    5.3031
 Total energy for state  3:                  -363.42579441 au
    Multiplicity: Singlet
    Trans. Mom.: -0.0006 X   0.0004 Y  -0.1558 Z
    Strength   :     0.0031525178
    D(   31) --> V(    2) amplitude =  0.9689
 
 ---------------------------------------------------
 Calculating Relaxed Density
 ---------------------------------------------------
 Iter    Rts Conv    Rts Left    Ttl Dev     Max Dev
 ---------------------------------------------------
   1         0           3      0.000941    0.000476
   2         0           3      0.000380    0.000202
   3         0           3      0.000115    0.000049
   4         0           3      0.000039    0.000021
   5         0           3      0.000013    0.000007
   6         0           3      0.000004    0.000002
   7         3           0      0.000000    0.000000    Roots Converged
 ---------------------------------------------------
  SETman timing summary (seconds)
  CPU time               196.35s
  System time              0.00s
  Wall time               49.36s
 
 --------------------------------------------------------------
 
                    Orbital Energies (a.u.)
 --------------------------------------------------------------
 
 Alpha MOs
 -- Occupied --
-14.4598 -10.3024 -10.3014 -10.2713 -10.2676 -10.2670 -10.2656 -10.2614
-10.2561  -1.0649  -0.9152  -0.8663  -0.8112  -0.7982  -0.7017  -0.6709
 -0.6560  -0.6109  -0.5590  -0.5402  -0.5040  -0.4995  -0.4934  -0.4787
 -0.4613  -0.4207  -0.4020  -0.3970  -0.3432  -0.2726  -0.2603
 -- Virtual --
  0.0190   0.0244   0.0430   0.0472   0.0581   0.0616   0.0630   0.0800
  0.0858   0.0897   0.0902   0.0937   0.1128   0.1194   0.1295   0.1310
  0.1409   0.1542   0.1659   0.1672   0.1810   0.1857   0.1932   0.1972
  0.2021   0.2169   0.2174   0.2186   0.2285   0.2345   0.2354   0.2434
  0.2491   0.2589   0.2622   0.2687   0.2699   0.2774   0.2911   0.2947
  0.3023   0.3080   0.3230   0.3334   0.3428   0.3522   0.3564   0.3713
  0.3882   0.4129   0.4229   0.4450   0.4840   0.5015   0.5639   0.6242
  0.6584   0.7296   0.7307   0.7547   0.7630   0.7766   0.7855   0.7915
  0.7932   0.8085   0.8092   0.8327   0.8475   0.8482   0.8706   0.9078
  0.9470   0.9549   0.9656   0.9941   1.0002   1.0107   1.0186   1.0427
  1.0522   1.0873   1.1055   1.1206   1.1514   1.1698   1.1744   1.2255
  1.2383   1.2641   1.2821   1.3054   1.3121   1.3739   1.3980   1.4177
  1.4253   1.4685   1.4863   1.4993   1.5359   1.5471   1.5705   1.5729
  1.5922   1.6467   1.7088   1.8594   1.8970   1.9473   1.9644   1.9719
  1.9946   2.0575   2.0621   2.0795   2.1146   2.1295   2.1920   2.2061
  2.2288   2.2603   2.3071   2.3164   2.3342   2.3353   2.3698   2.4398
  2.4821   2.5114   2.6052   2.6222   2.6961   2.7081   2.7214   2.7489
  2.7858   2.8611   2.8986   2.9077   3.0274   3.0358   3.1673   3.2945
  3.4583   4.2074   4.3012   4.3521   4.3847   4.4207   4.4592   4.5388
  4.5807   4.8336
 --------------------------------------------------------------
 
          Ground-State Mulliken Net Atomic Charges

     Atom                 Charge (a.u.)
  ----------------------------------------
      1 C                    -0.010433
      2 C                    -0.419815
      3 C                    -0.167447
      4 C                    -0.714846
      5 C                     1.081974
      6 C                    -0.671815
      7 N                    -0.529910
      8 C                     0.124760
      9 C                    -0.246796
     10 H                     0.418853
     11 H                     0.197192
     12 H                     0.200738
     13 H                     0.183325
     14 H                     0.185493
     15 H                     0.178837
     16 H                     0.189890
  ----------------------------------------
  Sum of atomic charges =     0.000000

 -----------------------------------------------------------------
                    Cartesian Multipole Moments
 -----------------------------------------------------------------
    Charge (ESU x 10^10)
                -0.0000
    Dipole Moment (Debye)
         X      -1.5836      Y       1.5209      Z       0.0009
       Tot       2.1957
    Quadrupole Moments (Debye-Ang)
        XX     -45.5614     XY      -2.9616     YY     -44.5683
        XZ      -0.0023     YZ       0.0033     ZZ     -59.3936
    Octopole Moments (Debye-Ang^2)
       XXX     -15.6670    XXY       8.4505    XYY      -7.9835
       YYY      10.2936    XXZ       0.0023    XYZ      -0.0065
       YYZ       0.0048    XZZ      -2.4207    YZZ       2.0281
       ZZZ      -0.0020
    Hexadecapole Moments (Debye-Ang^3)
      XXXX    -829.8621   XXXY     -22.2676   XXYY    -201.9310
      XYYY     -21.7616   YYYY    -381.9839   XXXZ      -0.0030
      XXYZ       0.0130   XYYZ      -0.0112   YYYZ       0.0148
      XXZZ    -194.0160   XYZZ      -4.8480   YYZZ     -97.1087
      XZZZ       0.0038   YZZZ       0.0020   ZZZZ     -75.7882
 -----------------------------------------------------------------
 Calculating analytic gradient of the CIS energy
 CIS relaxed dipole moment
            1
    1  -0.7261389
    2   0.4512290
    3   0.0002668
	Magnitude:	 0.855 au	 2.173 Debye
 CIS 1 State Energy is -363.4396195662
 Gradient of the state energy (including CIS Excitation Energy)
            1           2           3           4           5           6
    1   0.0001455  -0.0005744   0.0017220   0.0043747  -0.0004360   0.0030563
    2  -0.0046518   0.0034326  -0.0008334  -0.0036946   0.0043202   0.0010849
    3   0.0000023   0.0000002  -0.0000084   0.0000015   0.0000083  -0.0000011
            7           8           9          10          11          12
    1  -0.0093230  -0.0029182   0.0048483   0.0003937  -0.0002026  -0.0007697
    2   0.0003198  -0.0045301   0.0048428  -0.0003007   0.0000228  -0.0007588
    3  -0.0000092   0.0000056  -0.0000064   0.0000098  -0.0000015  -0.0000007
           13          14          15          16
    1   0.0003785   0.0001039   0.0002441  -0.0010430
    2   0.0007026   0.0006487   0.0001443  -0.0007495
    3   0.0000001   0.0000022  -0.0000010  -0.0000016
 Gradient time:  CPU 37.97 s  wall 9.55 s
 Geometry Optimization Parameters
   NAtoms,    NIC,     NZ,  NCons,   NDum,   NFix, NCnnct, MaxDiis
       16     116       0       0       0       0       0       0

 Cartesian Hessian Update
 Hessian updated using BFGS update


** GEOMETRY OPTIMIZATION IN DELOCALIZED INTERNAL COORDINATES **
   Searching for a Minimum

   Optimization Cycle:   2

                       Coordinates (Angstroms)
     ATOM                X               Y               Z
      1  C         2.1673644905   -0.6910925026    0.0000063909
      2  C         2.1576889555    0.7369249520   -0.0000027078
      3  C         0.9376372215    1.4501148458   -0.0000412623
      4  C        -0.2477371300    0.6839144781    0.0000189250
      5  C        -0.2600598140   -0.7682987428    0.0000419002
      6  C         0.9705290993   -1.4550854375    0.0000095165
      7  N        -1.5587717442    1.0761144214   -0.0000343257
      8  C        -1.6351803828   -1.1753504435    0.0000305107
      9  C        -2.4048487030   -0.0379136733    0.0000205210
     10  H        -1.8715890276    2.0349413764    0.0007328204
     11  H        -2.0093043897   -2.1897515906   -0.0000605299
     12  H        -3.4787587980    0.0808509067   -0.0000495943
     13  H         3.0981697773    1.2775126905   -0.0000182059
     14  H         0.9155511433    2.5354694815   -0.0000665488
     15  H         3.1229792179   -1.2056818474   -0.0000319694
     16  H         0.9994250352   -2.5401164221   -0.0000294594
   Point Group: c1    Number of degrees of freedom:    42


   Energy is   -363.439619566

 Hessian updated using BFGS update

 40 Hessian modes will be used to form the next step
  Hessian Eigenvalues:
     0.018594    0.019738    0.020011    0.020794    0.021683    0.022200
     0.022636    0.023004    0.023236    0.023608    0.023851    0.023984
     0.024127    0.159596    0.160000    0.160000    0.160000    0.160135
     0.213080    0.220349    0.226549    0.241279    0.246115    0.357143
     0.357301    0.357787    0.358256    0.364071    0.364625    0.369772
     0.380911    0.425794    0.430767    0.441994    0.463617    0.471690
     0.472646    0.475308    0.493935    0.548689

 Minimum search - taking simple RFO step
 Searching for Lamda that Minimizes Along All modes
 Value Taken    Lamda =  -0.00028755
 Step Taken.  Stepsize is  0.031196

                             Maximum     Tolerance    Cnvgd?
         Gradient           0.005056      0.000300      NO
         Displacement       0.015787      0.001200      NO
         Energy change     -0.004531      0.000001      NO


 New Cartesian Coordinates Obtained by Inverse Iteration

 Displacement from previous Coordinates is:  0.037043
 ----------------------------------------------------------------
             Standard Nuclear Orientation (Angstroms)
    I     Atom           X                Y                Z
 ----------------------------------------------------------------
    1      C       2.1629824895    -0.6878550789    -0.0000140740
    2      C       2.1543617638     0.7363833190     0.0000169269
    3      C       0.9342818186     1.4516963603     0.0000102764
    4      C      -0.2479486242     0.6832772297     0.0000210020
    5      C      -0.2600724148    -0.7719815280    -0.0000103316
    6      C       0.9683408589    -1.4579800104    -0.0000262781
    7      N      -1.5521469704     1.0738717146    -0.0000527207
    8      C      -1.6333885289    -1.1729530369     0.0000137562
    9      C      -2.4065145644    -0.0391193707     0.0000849520
   10      H      -1.8641071823     2.0336490636     0.0005506024
   11      H      -2.0062860419    -2.1878803049    -0.0000465473
   12      H      -3.4787708675     0.0862803126     0.0000554445
   13      H       3.0961010138     1.2728933579     0.0000139159
   14      H       0.9106833460     2.5361359231    -0.0000172515
   15      H       3.1186253966    -1.2021557321    -0.0000320855
   16      H       1.0069534586    -2.5417097262    -0.0000416064
 ----------------------------------------------------------------
 Molecular Point Group                 C1    NOp =  1
 Largest Abelian Subgroup              C1    NOp =  1
 Nuclear Repulsion Energy =         397.39586410 hartrees
 There are       31 alpha and       31 beta electrons
 Applying Cartesian multipole field
    Component          Value
    ---------          -----
     (2,0,0)        1.00000E-11
     (0,2,0)        2.00000E-11
     (0,0,2)       -3.00000E-11
 Nucleus-field energy     =     0.0000000119 hartrees
 Requested basis set is 6-31+G(d)
 There are 59 shells and 185 basis functions
 A cutoff of  1.0D-12 yielded   1656 shell pairs
 There are     17099 function pairs
 Smallest overlap matrix eigenvalue = 1.44E-06
 Guess MOs from SCF MO coefficient file

 -----------------------------------------------------------------------
  General SCF calculation program by
  Eric Jon Sundstrom, Paul Horn, Yuezhi Mao, Dmitri Zuev, Alec White,
  David Stuck, Shaama M.S., Shane Yost, Joonho Lee, David Small,
  Daniel Levine, Susi Lehtola, Hugh Burton, Evgeny Epifanovsky,
  Bang C. Huynh
 -----------------------------------------------------------------------
 Exchange:     0.1900 Hartree-Fock + 0.3500 B88 + 0.4600 muB88 + LR-HF
 Correlation:  0.1900 VWN5 + 0.8100 LYP
 Using SG-1 standard quadrature grid
 using 4 threads for integral computing
 -------------------------------------------------------
 OpenMP Integral computing Module                
 Release: version 1.0, May 2013, Q-Chem Inc. Pittsburgh 
 -------------------------------------------------------
 using 4 threads for integral computing
 -------------------------------------------------------
 OpenMP Integral computing Module                
 Release: version 1.0, May 2013, Q-Chem Inc. Pittsburgh 
 -------------------------------------------------------
 A restricted SCF calculation will be
 performed using DIIS
 SCF converges when DIIS error is below 1.0e-08
 ---------------------------------------
  Cycle       Energy         DIIS error
 ---------------------------------------
    1    -363.6201457768      1.49e-04  
    2    -363.6202638920      3.17e-05  
    3    -363.6202659004      3.40e-05  
    4    -363.6202703213      5.35e-06  
    5    -363.6202705214      2.69e-06  
    6    -363.6202705703      9.03e-07  
    7    -363.6202705804      3.59e-07  
    8    -363.6202705819      1.85e-07  
    9    -363.6202705822      4.44e-08  
   10    -363.6202705822      2.11e-08  
   11    -363.6202705822      6.61e-09  Convergence criterion met
 ---------------------------------------
 SCF time:   CPU 43.27s  wall 11.00s 
 SCF   energy in the final basis set =     -363.6202705822
 Total energy in the final basis set =     -363.6202705822
 
 Direct TDDFT/TDA calculation will be performed
 Exchange:     0.1900 Hartree-Fock + 0.3500 B88 + 0.4600 muB88 + LR-HF
 Correlation:  0.1900 VWN5 + 0.8100 LYP
 Using SG-1 standard quadrature grid
 Singlet excitation energies requested
 CIS energy converged when residual is below 10e- 6
 ---------------------------------------------------
 Iter    Rts Conv    Rts Left    Ttl Dev     Max Dev
 ---------------------------------------------------
   1         0           3      0.003703    0.001732
   2         0           3      0.001054    0.000501
   3         0           3      0.000592    0.000296
   4         0           3      0.000256    0.000116
   5         0           3      0.000089    0.000039
   6         0           3      0.000042    0.000016
   7         0           3      0.000018    0.000006
   8         0           3      0.000007    0.000003
   9         2           1      0.000003    0.000002
  10         3           0      0.000002    0.000001    Roots Converged
 ---------------------------------------------------
 
 ---------------------------------------------------
         TDDFT/TDA Excitation Energies              
 ---------------------------------------------------

 Excited state   1: excitation energy (eV) =    4.9106
 Total energy for state  1:                  -363.43980753 au
    Multiplicity: Singlet
    Trans. Mom.: -0.4274 X  -0.4534 Y   0.0000 Z
    Strength   :     0.0467083999
    D(   30) --> V(    1) amplitude =  0.7803
    D(   31) --> V(    1) amplitude = -0.2859
    D(   31) --> V(    5) amplitude =  0.4898

 Excited state   2: excitation energy (eV) =    5.1396
 Total energy for state  2:                  -363.43139349 au
    Multiplicity: Singlet
    Trans. Mom.: -0.7468 X   0.6372 Y   0.0002 Z
    Strength   :     0.1213486003
    D(   30) --> V(    1) amplitude =  0.2294
    D(   30) --> V(    5) amplitude = -0.3237
    D(   31) --> V(    1) amplitude =  0.8625
    D(   31) --> V(    5) amplitude =  0.2300

 Excited state   3: excitation energy (eV) =    5.3046
 Total energy for state  3:                  -363.42533000 au
    Multiplicity: Singlet
    Trans. Mom.:  0.0005 X  -0.0004 Y   0.1517 Z
    Strength   :     0.0029905669
    D(   31) --> V(    2) amplitude =  0.9680
 
 ---------------------------------------------------
 Calculating Relaxed Density
 ---------------------------------------------------
 Iter    Rts Conv    Rts Left    Ttl Dev     Max Dev
 ---------------------------------------------------
   1         0           3      0.000939    0.000474
   2         0           3      0.000380    0.000202
   3         0           3      0.000116    0.000051
   4         0           3      0.000039    0.000022
   5         0           3      0.000014    0.000008
   6         0           3      0.000004    0.000002
   7         3           0      0.000000    0.000000    Roots Converged
 ---------------------------------------------------
  SETman timing summary (seconds)
  CPU time               194.13s
  System time              0.00s
  Wall time               48.80s
 
 --------------------------------------------------------------
 
                    Orbital Energies (a.u.)
 --------------------------------------------------------------
 
 Alpha MOs
 -- Occupied --
-14.4595 -10.3024 -10.3010 -10.2708 -10.2671 -10.2668 -10.2652 -10.2606
-10.2560  -1.0657  -0.9152  -0.8672  -0.8109  -0.7986  -0.7023  -0.6709
 -0.6559  -0.6108  -0.5597  -0.5403  -0.5035  -0.4996  -0.4940  -0.4788
 -0.4619  -0.4202  -0.4022  -0.3968  -0.3441  -0.2719  -0.2603
 -- Virtual --
  0.0184   0.0244   0.0430   0.0472   0.0588   0.0616   0.0631   0.0801
  0.0858   0.0899   0.0903   0.0936   0.1128   0.1194   0.1295   0.1310
  0.1410   0.1543   0.1659   0.1671   0.1812   0.1857   0.1933   0.1974
  0.2019   0.2170   0.2175   0.2187   0.2286   0.2340   0.2356   0.2435
  0.2493   0.2594   0.2622   0.2690   0.2700   0.2770   0.2912   0.2948
  0.3017   0.3082   0.3240   0.3336   0.3435   0.3533   0.3564   0.3717
  0.3882   0.4140   0.4230   0.4459   0.4837   0.5045   0.5647   0.6243
  0.6585   0.7296   0.7301   0.7547   0.7627   0.7764   0.7872   0.7923
  0.7933   0.8086   0.8100   0.8326   0.8478   0.8484   0.8706   0.9080
  0.9475   0.9549   0.9659   0.9948   1.0007   1.0106   1.0186   1.0433
  1.0523   1.0870   1.1065   1.1206   1.1510   1.1702   1.1749   1.2263
  1.2392   1.2653   1.2821   1.3048   1.3120   1.3743   1.3985   1.4179
  1.4264   1.4681   1.4845   1.4987   1.5375   1.5475   1.5710   1.5728
  1.5934   1.6502   1.7079   1.8599   1.8974   1.9503   1.9657   1.9724
  1.9980   2.0593   2.0646   2.0809   2.1140   2.1264   2.1939   2.2071
  2.2258   2.2644   2.3066   2.3145   2.3347   2.3387   2.3719   2.4409
  2.4850   2.5132   2.6089   2.6252   2.6954   2.7097   2.7214   2.7497
  2.7859   2.8627   2.8997   2.9100   3.0306   3.0388   3.1683   3.2986
  3.4606   4.2072   4.3029   4.3525   4.3860   4.4219   4.4602   4.5399
  4.5811   4.8349
 --------------------------------------------------------------
 
          Ground-State Mulliken Net Atomic Charges

     Atom                 Charge (a.u.)
  ----------------------------------------
      1 C                    -0.010457
      2 C                    -0.416237
      3 C                    -0.176696
      4 C                    -0.705886
      5 C                     1.085400
      6 C                    -0.676220
      7 N                    -0.530874
      8 C                     0.120744
      9 C                    -0.243437
     10 H                     0.418466
     11 H                     0.196955
     12 H                     0.201291
     13 H                     0.183117
     14 H                     0.185489
     15 H                     0.178083
     16 H                     0.190262
  ----------------------------------------
  Sum of atomic charges =     0.000000

 -----------------------------------------------------------------
                    Cartesian Multipole Moments
 -----------------------------------------------------------------
    Charge (ESU x 10^10)
                -0.0000
    Dipole Moment (Debye)
         X      -1.5968      Y       1.5162      Z       0.0008
       Tot       2.2019
    Quadrupole Moments (Debye-Ang)
        XX     -45.5778     XY      -2.9753     YY     -44.5739
        XZ      -0.0020     YZ       0.0025     ZZ     -59.3680
    Octopole Moments (Debye-Ang^2)
       XXX     -15.7889    XXY       8.4757    XYY      -7.8769
       YYY      10.2718    XXZ       0.0027    XYZ      -0.0050
       YYZ       0.0035    XZZ      -2.3932    YZZ       2.0365
       ZZZ      -0.0020
    Hexadecapole Moments (Debye-Ang^3)
      XXXX    -827.6219   XXXY     -22.2900   XXYY    -201.8349
      XYYY     -21.9983   YYYY    -381.9553   XXXZ      -0.0030
      XXYZ       0.0089   XYYZ      -0.0077   YYYZ       0.0082
      XXZZ    -193.5568   XYZZ      -4.8389   YYZZ     -97.0447
      XZZZ       0.0053   YZZZ      -0.0018   ZZZZ     -75.7255
 -----------------------------------------------------------------
 Calculating analytic gradient of the CIS energy
 CIS relaxed dipole moment
            1
    1  -0.7216194
    2   0.4462396
    3   0.0001646
	Magnitude:	 0.848 au	 2.157 Debye
 CIS 1 State Energy is -363.4398075287
 Gradient of the state energy (including CIS Excitation Energy)
            1           2           3           4           5           6
    1   0.0003877   0.0001228  -0.0002444   0.0015129  -0.0006935   0.0007262
    2  -0.0021199   0.0015279   0.0002566  -0.0006206   0.0006918  -0.0001968
    3  -0.0000008   0.0000016  -0.0000049   0.0000060   0.0000043  -0.0000001
            7           8           9          10          11          12
    1  -0.0034153   0.0000997   0.0021256   0.0001273  -0.0000543  -0.0003053
    2  -0.0008675  -0.0012582   0.0027194   0.0000106   0.0001175  -0.0004209
    3  -0.0000145  -0.0000012   0.0000040   0.0000065  -0.0000014  -0.0000001
           13          14          15          16
    1  -0.0000436   0.0000349   0.0000170  -0.0003976
    2   0.0000700   0.0000574   0.0001528  -0.0001200
    3  -0.0000001   0.0000009  -0.0000001  -0.0000003
 Gradient time:  CPU 38.59 s  wall 9.70 s
 Geometry Optimization Parameters
   NAtoms,    NIC,     NZ,  NCons,   NDum,   NFix, NCnnct, MaxDiis
       16     116       0       0       0       0       0       0

 Cartesian Hessian Update
 Hessian updated using BFGS update


** GEOMETRY OPTIMIZATION IN DELOCALIZED INTERNAL COORDINATES **
   Searching for a Minimum

   Optimization Cycle:   3

                       Coordinates (Angstroms)
     ATOM                X               Y               Z
      1  C         2.1629824895   -0.6878550789   -0.0000140740
      2  C         2.1543617638    0.7363833190    0.0000169269
      3  C         0.9342818186    1.4516963603    0.0000102764
      4  C        -0.2479486242    0.6832772297    0.0000210020
      5  C        -0.2600724148   -0.7719815280   -0.0000103316
      6  C         0.9683408589   -1.4579800104   -0.0000262781
      7  N        -1.5521469704    1.0738717146   -0.0000527207
      8  C        -1.6333885289   -1.1729530369    0.0000137562
      9  C        -2.4065145644   -0.0391193707    0.0000849520
     10  H        -1.8641071823    2.0336490636    0.0005506024
     11  H        -2.0062860419   -2.1878803049   -0.0000465473
     12  H        -3.4787708675    0.0862803126    0.0000554445
     13  H         3.0961010138    1.2728933579    0.0000139159
     14  H         0.9106833460    2.5361359231   -0.0000172515
     15  H         3.1186253966   -1.2021557321   -0.0000320855
     16  H         1.0069534586   -2.5417097262   -0.0000416064
   Point Group: c1    Number of degrees of freedom:    42


   Energy is   -363.439807529

 Hessian updated using BFGS update

 39 Hessian modes will be used to form the next step
  Hessian Eigenvalues:
     0.018593    0.019738    0.020011    0.020794    0.021683    0.022200
     0.022636    0.023004    0.023236    0.023608    0.023851    0.023984
     0.024127    0.137371    0.160000    0.160013    0.160356    0.196685
     0.221159    0.228625    0.243212    0.244529    0.349196    0.357155
     0.357694    0.358431    0.359802    0.364623    0.366458    0.374927
     0.393071    0.426513    0.447075    0.463700    0.471671    0.474671
     0.486384    0.497639    0.524417

 Minimum search - taking simple RFO step
 Searching for Lamda that Minimizes Along All modes
 Value Taken    Lamda =  -0.00006086
 Step Taken.  Stepsize is  0.017838

                             Maximum     Tolerance    Cnvgd?
         Gradient           0.001747      0.000300      NO
         Displacement       0.008589      0.001200      NO
         Energy change     -0.000188      0.000001      NO


 New Cartesian Coordinates Obtained by Inverse Iteration

 Displacement from previous Coordinates is:  0.020922
 ----------------------------------------------------------------
             Standard Nuclear Orientation (Angstroms)
    I     Atom           X                Y                Z
 ----------------------------------------------------------------
    1      C       2.1609232003    -0.6848593687    -0.0000335949
    2      C       2.1538795118     0.7361384194     0.0000076783
    3      C       0.9339246111     1.4513088375     0.0000510671
    4      C      -0.2479610287     0.6823616712     0.0000366280
    5      C      -0.2607563479    -0.7736194203    -0.0000250227
    6      C       0.9674845394    -1.4576407171    -0.0000434158
    7      N      -1.5487197672     1.0724912545     0.0000123724
    8      C      -1.6346314945    -1.1729131952     0.0000443078
    9      C      -2.4090058254    -0.0408667691     0.0000647180
   10      H      -1.8601201789     2.0326346333     0.0004671771
   11      H      -2.0065343077    -2.1884820499     0.0000165998
   12      H      -3.4800176787     0.0903149638    -0.0000006933
   13      H       3.0964325106     1.2711645670     0.0000029186
   14      H       0.9096361249     2.5355847001     0.0000330964
   15      H       3.1161918785    -1.2001979006    -0.0000590465
   16      H       1.0123692038    -2.5408671334    -0.0000488091
 ----------------------------------------------------------------
 Molecular Point Group                 C1    NOp =  1
 Largest Abelian Subgroup              C1    NOp =  1
 Nuclear Repulsion Energy =         397.50181815 hartrees
 There are       31 alpha and       31 beta electrons
 Applying Cartesian multipole field
    Component          Value
    ---------          -----
     (2,0,0)        1.00000E-11
     (0,2,0)        2.00000E-11
     (0,0,2)       -3.00000E-11
 Nucleus-field energy     =     0.0000000119 hartrees
 Requested basis set is 6-31+G(d)
 There are 59 shells and 185 basis functions
 A cutoff of  1.0D-12 yielded   1656 shell pairs
 There are     17099 function pairs
 Smallest overlap matrix eigenvalue = 1.43E-06
 Guess MOs from SCF MO coefficient file

 -----------------------------------------------------------------------
  General SCF calculation program by
  Eric Jon Sundstrom, Paul Horn, Yuezhi Mao, Dmitri Zuev, Alec White,
  David Stuck, Shaama M.S., Shane Yost, Joonho Lee, David Small,
  Daniel Levine, Susi Lehtola, Hugh Burton, Evgeny Epifanovsky,
  Bang C. Huynh
 -----------------------------------------------------------------------
 Exchange:     0.1900 Hartree-Fock + 0.3500 B88 + 0.4600 muB88 + LR-HF
 Correlation:  0.1900 VWN5 + 0.8100 LYP
 Using SG-1 standard quadrature grid
 using 4 threads for integral computing
 -------------------------------------------------------
 OpenMP Integral computing Module                
 Release: version 1.0, May 2013, Q-Chem Inc. Pittsburgh 
 -------------------------------------------------------
 using 4 threads for integral computing
 -------------------------------------------------------
 OpenMP Integral computing Module                
 Release: version 1.0, May 2013, Q-Chem Inc. Pittsburgh 
 -------------------------------------------------------
 A restricted SCF calculation will be
 performed using DIIS
 SCF converges when DIIS error is below 1.0e-08
 ---------------------------------------
  Cycle       Energy         DIIS error
 ---------------------------------------
    1    -363.6200097699      6.66e-05  
    2    -363.6200378600      1.59e-05  
    3    -363.6200385413      1.65e-05  
    4    -363.6200397194      2.62e-06  
    5    -363.6200397767      1.38e-06  
    6    -363.6200397916      5.13e-07  
    7    -363.6200397950      2.06e-07  
    8    -363.6200397954      9.42e-08  
    9    -363.6200397955      2.19e-08  
   10    -363.6200397955      1.18e-08  
   11    -363.6200397955      2.15e-09  Convergence criterion met
 ---------------------------------------
 SCF time:   CPU 43.28s  wall 11.00s 
 SCF   energy in the final basis set =     -363.6200397955
 Total energy in the final basis set =     -363.6200397955
 
 Direct TDDFT/TDA calculation will be performed
 Exchange:     0.1900 Hartree-Fock + 0.3500 B88 + 0.4600 muB88 + LR-HF
 Correlation:  0.1900 VWN5 + 0.8100 LYP
 Using SG-1 standard quadrature grid
 Singlet excitation energies requested
 CIS energy converged when residual is below 10e- 6
 ---------------------------------------------------
 Iter    Rts Conv    Rts Left    Ttl Dev     Max Dev
 ---------------------------------------------------
   1         0           3      0.003709    0.001727
   2         0           3      0.001053    0.000503
   3         0           3      0.000592    0.000290
   4         0           3      0.000257    0.000117
   5         0           3      0.000089    0.000038
   6         0           3      0.000043    0.000016
   7         0           3      0.000018    0.000006
   8         0           3      0.000007    0.000003
   9         2           1      0.000003    0.000002
  10         2           1      0.000002    0.000001
  11         3           0      0.000002    0.000001    Roots Converged
 ---------------------------------------------------
 
 ---------------------------------------------------
         TDDFT/TDA Excitation Energies              
 ---------------------------------------------------

 Excited state   1: excitation energy (eV) =    4.9035
 Total energy for state  1:                  -363.43984114 au
    Multiplicity: Singlet
    Trans. Mom.: -0.4328 X  -0.4815 Y  -0.0000 Z
    Strength   :     0.0503552599
    D(   30) --> V(    1) amplitude =  0.7660
    D(   31) --> V(    1) amplitude = -0.3374
    D(   31) --> V(    5) amplitude =  0.4728

 Excited state   2: excitation energy (eV) =    5.1453
 Total energy for state  2:                  -363.43095227 au
    Multiplicity: Singlet
    Trans. Mom.: -0.7442 X   0.6312 Y   0.0001 Z
    Strength   :     0.1200341063
    D(   30) --> V(    1) amplitude =  0.2797
    D(   30) --> V(    5) amplitude = -0.3132
    D(   31) --> V(    1) amplitude =  0.8442
    D(   31) --> V(    5) amplitude =  0.2558

 Excited state   3: excitation energy (eV) =    5.3102
 Total energy for state  3:                  -363.42489463 au
    Multiplicity: Singlet
    Trans. Mom.:  0.0003 X  -0.0003 Y   0.1456 Z
    Strength   :     0.0027594168
    D(   31) --> V(    2) amplitude =  0.9668
 
 ---------------------------------------------------
 Calculating Relaxed Density
 ---------------------------------------------------
 Iter    Rts Conv    Rts Left    Ttl Dev     Max Dev
 ---------------------------------------------------
   1         0           3      0.000937    0.000470
   2         0           3      0.000382    0.000202
   3         0           3      0.000118    0.000054
   4         0           3      0.000040    0.000023
   5         0           3      0.000014    0.000008
   6         1           2      0.000003    0.000002
   7         3           0      0.000000    0.000000    Roots Converged
 ---------------------------------------------------
  SETman timing summary (seconds)
  CPU time               202.91s
  System time              0.00s
  Wall time               51.02s
 
 --------------------------------------------------------------
 
                    Orbital Energies (a.u.)
 --------------------------------------------------------------
 
 Alpha MOs
 -- Occupied --
-14.4592 -10.3026 -10.3009 -10.2705 -10.2668 -10.2667 -10.2652 -10.2600
-10.2564  -1.0656  -0.9152  -0.8675  -0.8106  -0.7990  -0.7026  -0.6707
 -0.6559  -0.6107  -0.5599  -0.5404  -0.5031  -0.4994  -0.4940  -0.4792
 -0.4623  -0.4199  -0.4022  -0.3967  -0.3444  -0.2716  -0.2606
 -- Virtual --
  0.0182   0.0244   0.0430   0.0471   0.0593   0.0616   0.0630   0.0801
  0.0858   0.0899   0.0903   0.0936   0.1128   0.1194   0.1295   0.1310
  0.1410   0.1543   0.1659   0.1671   0.1813   0.1857   0.1933   0.1974
  0.2017   0.2169   0.2176   0.2187   0.2286   0.2337   0.2357   0.2436
  0.2493   0.2596   0.2621   0.2693   0.2701   0.2769   0.2913   0.2947
  0.3013   0.3083   0.3243   0.3337   0.3439   0.3539   0.3562   0.3717
  0.3881   0.4147   0.4230   0.4463   0.4833   0.5059   0.5647   0.6247
  0.6591   0.7295   0.7297   0.7548   0.7624   0.7764   0.7875   0.7926
  0.7933   0.8086   0.8103   0.8326   0.8479   0.8486   0.8704   0.9080
  0.9477   0.9551   0.9659   0.9948   1.0008   1.0104   1.0186   1.0434
  1.0525   1.0865   1.1068   1.1209   1.1509   1.1702   1.1753   1.2264
  1.2398   1.2660   1.2819   1.3049   1.3120   1.3743   1.3990   1.4180
  1.4271   1.4684   1.4837   1.4986   1.5382   1.5474   1.5716   1.5729
  1.5935   1.6518   1.7072   1.8601   1.8981   1.9503   1.9662   1.9734
  1.9996   2.0598   2.0653   2.0810   2.1132   2.1252   2.1940   2.2082
  2.2245   2.2665   2.3072   2.3139   2.3336   2.3407   2.3728   2.4412
  2.4858   2.5133   2.6106   2.6259   2.6954   2.7111   2.7217   2.7503
  2.7864   2.8630   2.9004   2.9117   3.0312   3.0404   3.1673   3.3004
  3.4624   4.2065   4.3043   4.3522   4.3869   4.4220   4.4603   4.5403
  4.5812   4.8355
 --------------------------------------------------------------
 
          Ground-State Mulliken Net Atomic Charges

     Atom                 Charge (a.u.)
  ----------------------------------------
      1 C                    -0.007414
      2 C                    -0.416075
      3 C                    -0.176060
      4 C                    -0.707266
      5 C                     1.090276
      6 C                    -0.683586
      7 N                    -0.532092
      8 C                     0.120137
      9 C                    -0.241297
     10 H                     0.418168
     11 H                     0.197049
     12 H                     0.201609
     13 H                     0.183218
     14 H                     0.185369
     15 H                     0.177636
     16 H                     0.190330
  ----------------------------------------
  Sum of atomic charges =     0.000000

 -----------------------------------------------------------------
                    Cartesian Multipole Moments
 -----------------------------------------------------------------
    Charge (ESU x 10^10)
                -0.0000
    Dipole Moment (Debye)
         X      -1.6008      Y       1.5085      Z       0.0006
       Tot       2.1995
    Quadrupole Moments (Debye-Ang)
        XX     -45.5672     XY      -2.9637     YY     -44.5910
        XZ      -0.0014     YZ       0.0019     ZZ     -59.3557
    Octopole Moments (Debye-Ang^2)
       XXX     -15.8344    XXY       8.4974    XYY      -7.8129
       YYY      10.2356    XXZ       0.0008    XYZ      -0.0037
       YYZ       0.0027    XZZ      -2.3515    YZZ       2.0419
       ZZZ      -0.0030
    Hexadecapole Moments (Debye-Ang^3)
      XXXX    -827.0696   XXXY     -22.4451   XXYY    -201.8325
      XYYY     -22.2522   YYYY    -381.7895   XXXZ       0.0027
      XXYZ       0.0057   XYYZ      -0.0055   YYYZ       0.0036
      XXZZ    -193.4661   XYZZ      -4.9129   YYZZ     -96.9648
      XZZZ       0.0078   YZZZ      -0.0047   ZZZZ     -75.6846
 -----------------------------------------------------------------
 Calculating analytic gradient of the CIS energy
 CIS relaxed dipole moment
            1
    1  -0.7199375
    2   0.4409310
    3   0.0001139
	Magnitude:	 0.844 au	 2.146 Debye
 CIS 1 State Energy is -363.4398411449
 Gradient of the state energy (including CIS Excitation Energy)
            1           2           3           4           5           6
    1   0.0000237  -0.0001448  -0.0001610   0.0000724  -0.0004027  -0.0000595
    2  -0.0003461   0.0002696   0.0001232   0.0006549  -0.0006071  -0.0001438
    3  -0.0000002  -0.0000003  -0.0000010   0.0000048  -0.0000047   0.0000002
            7           8           9          10          11          12
    1  -0.0002427   0.0006003   0.0002272   0.0000513  -0.0000566  -0.0000028
    2  -0.0006018  -0.0000255   0.0007931   0.0000041  -0.0000033  -0.0001415
    3  -0.0000065   0.0000065  -0.0000029   0.0000052   0.0000004  -0.0000015
           13          14          15          16
    1   0.0000235   0.0000667   0.0000147  -0.0000097
    2  -0.0000750  -0.0000642   0.0000980   0.0000655
    3   0.0000001  -0.0000001  -0.0000001   0.0000002
 Gradient time:  CPU 39.91 s  wall 10.04 s
 Geometry Optimization Parameters
   NAtoms,    NIC,     NZ,  NCons,   NDum,   NFix, NCnnct, MaxDiis
       16     116       0       0       0       0       0       0

 Cartesian Hessian Update
 Hessian updated using BFGS update


** GEOMETRY OPTIMIZATION IN DELOCALIZED INTERNAL COORDINATES **
   Searching for a Minimum

   Optimization Cycle:   4

                       Coordinates (Angstroms)
     ATOM                X               Y               Z
      1  C         2.1609232003   -0.6848593687   -0.0000335949
      2  C         2.1538795118    0.7361384194    0.0000076783
      3  C         0.9339246111    1.4513088375    0.0000510671
      4  C        -0.2479610287    0.6823616712    0.0000366280
      5  C        -0.2607563479   -0.7736194203   -0.0000250227
      6  C         0.9674845394   -1.4576407171   -0.0000434158
      7  N        -1.5487197672    1.0724912545    0.0000123724
      8  C        -1.6346314945   -1.1729131952    0.0000443078
      9  C        -2.4090058254   -0.0408667691    0.0000647180
     10  H        -1.8601201789    2.0326346333    0.0004671771
     11  H        -2.0065343077   -2.1884820499    0.0000165998
     12  H        -3.4800176787    0.0903149638   -0.0000006933
     13  H         3.0964325106    1.2711645670    0.0000029186
     14  H         0.9096361249    2.5355847001    0.0000330964
     15  H         3.1161918785   -1.2001979006   -0.0000590465
     16  H         1.0123692038   -2.5408671334   -0.0000488091
   Point Group: c1    Number of degrees of freedom:    42


   Energy is   -363.439841145

 Hessian updated using BFGS update

 40 Hessian modes will be used to form the next step
  Hessian Eigenvalues:
     0.018592    0.019738    0.020011    0.020794    0.021684    0.022200
     0.022636    0.023004    0.023236    0.023608    0.023851    0.023984
     0.024128    0.124591    0.160000    0.160007    0.160106    0.161456
     0.200215    0.221587    0.228604    0.243226    0.243742    0.340978
     0.357158    0.357609    0.358327    0.359314    0.364597    0.365815
     0.372876    0.391107    0.426535    0.446475    0.463031    0.471762
     0.475369    0.480132    0.496027    0.537831

 Minimum search - taking simple RFO step
 Searching for Lamda that Minimizes Along All modes
 Value Taken    Lamda =  -0.00000369
 Step Taken.  Stepsize is  0.004059

                             Maximum     Tolerance    Cnvgd?
         Gradient           0.000418      0.000300      NO
         Displacement       0.001267      0.001200      NO
         Energy change     -0.000034      0.000001      NO


 New Cartesian Coordinates Obtained by Inverse Iteration

 Displacement from previous Coordinates is:  0.004607
 ----------------------------------------------------------------
             Standard Nuclear Orientation (Angstroms)
    I     Atom           X                Y                Z
 ----------------------------------------------------------------
    1      C       2.1611345710    -0.6843491769    -0.0000182865
    2      C       2.1544189319     0.7360804400     0.0000133142
    3      C       0.9341108905     1.4507529176     0.0000405350
    4      C      -0.2479602608     0.6818317109     0.0000233356
    5      C      -0.2607882196    -0.7735324319    -0.0000240115
    6      C       0.9676319173    -1.4571344088    -0.0000382534
    7      N      -1.5484212892     1.0724219143     0.0000267103
    8      C      -1.6352626647    -1.1730414596    -0.0000007571
    9      C      -2.4096851579    -0.0413490423     0.0001207423
   10      H      -1.8598528378     2.0325966128     0.0003897458
   11      H      -2.0066298892    -2.1887786436    -0.0000573593
   12      H      -3.4804857618     0.0913793046     0.0000995969
   13      H       3.0967026850     1.2715864296     0.0000128211
   14      H       0.9091154341     2.5350914918     0.0000223735
   15      H       3.1159835556    -1.2005910275    -0.0000342522
   16      H       1.0130830468    -2.5404121384    -0.0000502736
 ----------------------------------------------------------------
 Molecular Point Group                 C1    NOp =  1
 Largest Abelian Subgroup              C1    NOp =  1
 Nuclear Repulsion Energy =         397.49551143 hartrees
 There are       31 alpha and       31 beta electrons
 Applying Cartesian multipole field
    Component          Value
    ---------          -----
     (2,0,0)        1.00000E-11
     (0,2,0)        2.00000E-11
     (0,0,2)       -3.00000E-11
 Nucleus-field energy     =     0.0000000119 hartrees
 Requested basis set is 6-31+G(d)
 There are 59 shells and 185 basis functions
 A cutoff of  1.0D-12 yielded   1656 shell pairs
 There are     17099 function pairs
 Smallest overlap matrix eigenvalue = 1.43E-06
 Guess MOs from SCF MO coefficient file

 -----------------------------------------------------------------------
  General SCF calculation program by
  Eric Jon Sundstrom, Paul Horn, Yuezhi Mao, Dmitri Zuev, Alec White,
  David Stuck, Shaama M.S., Shane Yost, Joonho Lee, David Small,
  Daniel Levine, Susi Lehtola, Hugh Burton, Evgeny Epifanovsky,
  Bang C. Huynh
 -----------------------------------------------------------------------
 Exchange:     0.1900 Hartree-Fock + 0.3500 B88 + 0.4600 muB88 + LR-HF
 Correlation:  0.1900 VWN5 + 0.8100 LYP
 Using SG-1 standard quadrature grid
 using 4 threads for integral computing
 -------------------------------------------------------
 OpenMP Integral computing Module                
 Release: version 1.0, May 2013, Q-Chem Inc. Pittsburgh 
 -------------------------------------------------------
 using 4 threads for integral computing
 -------------------------------------------------------
 OpenMP Integral computing Module                
 Release: version 1.0, May 2013, Q-Chem Inc. Pittsburgh 
 -------------------------------------------------------
 A restricted SCF calculation will be
 performed using DIIS
 SCF converges when DIIS error is below 1.0e-08
 ---------------------------------------
  Cycle       Energy         DIIS error
 ---------------------------------------
    1    -363.6200380568      1.85e-05  
    2    -363.6200397788      3.34e-06  
    3    -363.6200398249      2.92e-06  
    4    -363.6200398601      4.82e-07  
    5    -363.6200398623      2.75e-07  
    6    -363.6200398627      1.03e-07  
    7    -363.6200398629      3.72e-08  
    8    -363.6200398629      1.72e-08  
    9    -363.6200398629      4.38e-09  Convergence criterion met
 ---------------------------------------
 SCF time:   CPU 35.96s  wall 9.00s 
 SCF   energy in the final basis set =     -363.6200398629
 Total energy in the final basis set =     -363.6200398629
 
 Direct TDDFT/TDA calculation will be performed
 Exchange:     0.1900 Hartree-Fock + 0.3500 B88 + 0.4600 muB88 + LR-HF
 Correlation:  0.1900 VWN5 + 0.8100 LYP
 Using SG-1 standard quadrature grid
 Singlet excitation energies requested
 CIS energy converged when residual is below 10e- 6
 ---------------------------------------------------
 Iter    Rts Conv    Rts Left    Ttl Dev     Max Dev
 ---------------------------------------------------
   1         0           3      0.003710    0.001727
   2         0           3      0.001053    0.000503
   3         0           3      0.000592    0.000289
   4         0           3      0.000257    0.000117
   5         0           3      0.000089    0.000038
   6         0           3      0.000043    0.000016
   7         0           3      0.000018    0.000006
   8         0           3      0.000007    0.000003
   9         2           1      0.000003    0.000002
  10         3           0      0.000002    0.000001    Roots Converged
 ---------------------------------------------------
 
 ---------------------------------------------------
         TDDFT/TDA Excitation Energies              
 ---------------------------------------------------

 Excited state   1: excitation energy (eV) =    4.9034
 Total energy for state  1:                  -363.43984367 au
    Multiplicity: Singlet
    Trans. Mom.: -0.4308 X  -0.4877 Y   0.0000 Z
    Strength   :     0.0508684102
    D(   30) --> V(    1) amplitude =  0.7614
    D(   31) --> V(    1) amplitude = -0.3503
    D(   31) --> V(    5) amplitude =  0.4690

 Excited state   2: excitation energy (eV) =    5.1473
 Total energy for state  2:                  -363.43087899 au
    Multiplicity: Singlet
    Trans. Mom.: -0.7428 X   0.6291 Y   0.0001 Z
    Strength   :     0.1194827454
    D(   30) --> V(    1) amplitude =  0.2921
    D(   30) --> V(    5) amplitude = -0.3098
    D(   31) --> V(    1) amplitude =  0.8392
    D(   31) --> V(    5) amplitude =  0.2625

 Excited state   3: excitation energy (eV) =    5.3116
 Total energy for state  3:                  -363.42484387 au
    Multiplicity: Singlet
    Trans. Mom.:  0.0004 X  -0.0003 Y   0.1438 Z
    Strength   :     0.0026903045
    D(   31) --> V(    2) amplitude =  0.9665
 
 ---------------------------------------------------
 Calculating Relaxed Density
 ---------------------------------------------------
 Iter    Rts Conv    Rts Left    Ttl Dev     Max Dev
 ---------------------------------------------------
   1         0           3      0.000936    0.000469
   2         0           3      0.000382    0.000202
   3         0           3      0.000119    0.000055
   4         0           3      0.000041    0.000024
   5         0           3      0.000014    0.000008
   6         1           2      0.000003    0.000002
   7         3           0      0.000000    0.000000    Roots Converged
 ---------------------------------------------------
  SETman timing summary (seconds)
  CPU time               198.07s
  System time              0.00s
  Wall time               49.80s
 
 --------------------------------------------------------------
 
                    Orbital Energies (a.u.)
 --------------------------------------------------------------
 
 Alpha MOs
 -- Occupied --
-14.4591 -10.3027 -10.3009 -10.2705 -10.2668 -10.2667 -10.2652 -10.2600
-10.2565  -1.0655  -0.9153  -0.8675  -0.8106  -0.7991  -0.7026  -0.6707
 -0.6559  -0.6107  -0.5599  -0.5405  -0.5030  -0.4993  -0.4939  -0.4794
 -0.4624  -0.4199  -0.4022  -0.3967  -0.3443  -0.2717  -0.2606
 -- Virtual --
  0.0182   0.0244   0.0430   0.0471   0.0593   0.0616   0.0630   0.0801
  0.0858   0.0899   0.0903   0.0936   0.1129   0.1194   0.1295   0.1310
  0.1410   0.1543   0.1659   0.1672   0.1813   0.1857   0.1933   0.1974
  0.2016   0.2169   0.2176   0.2187   0.2286   0.2337   0.2357   0.2436
  0.2493   0.2595   0.2621   0.2694   0.2701   0.2769   0.2913   0.2947
  0.3012   0.3084   0.3242   0.3337   0.3439   0.3539   0.3562   0.3717
  0.3881   0.4148   0.4230   0.4463   0.4832   0.5059   0.5646   0.6249
  0.6593   0.7295   0.7297   0.7548   0.7624   0.7764   0.7874   0.7925
  0.7933   0.8086   0.8103   0.8326   0.8479   0.8486   0.8703   0.9080
  0.9477   0.9551   0.9659   0.9949   1.0008   1.0103   1.0187   1.0434
  1.0524   1.0864   1.1068   1.1210   1.1510   1.1702   1.1754   1.2264
  1.2398   1.2660   1.2818   1.3049   1.3119   1.3743   1.3991   1.4179
  1.4272   1.4686   1.4836   1.4988   1.5382   1.5473   1.5717   1.5729
  1.5935   1.6521   1.7070   1.8601   1.8982   1.9497   1.9663   1.9738
  1.9998   2.0597   2.0651   2.0807   2.1130   2.1253   2.1936   2.2082
  2.2245   2.2666   2.3074   2.3138   2.3334   2.3408   2.3729   2.4412
  2.4854   2.5131   2.6107   2.6258   2.6955   2.7113   2.7218   2.7503
  2.7867   2.8629   2.9004   2.9120   3.0311   3.0404   3.1667   3.3005
  3.4627   4.2062   4.3044   4.3520   4.3871   4.4220   4.4602   4.5403
  4.5812   4.8357
 --------------------------------------------------------------
 
          Ground-State Mulliken Net Atomic Charges

     Atom                 Charge (a.u.)
  ----------------------------------------
      1 C                    -0.006431
      2 C                    -0.416880
      3 C                    -0.174925
      4 C                    -0.710569
      5 C                     1.093795
      6 C                    -0.684565
      7 N                    -0.532484
      8 C                     0.119428
      9 C                    -0.240710
     10 H                     0.418109
     11 H                     0.197079
     12 H                     0.201644
     13 H                     0.183299
     14 H                     0.185288
     15 H                     0.177616
     16 H                     0.190308
  ----------------------------------------
  Sum of atomic charges =     0.000000

 -----------------------------------------------------------------
                    Cartesian Multipole Moments
 -----------------------------------------------------------------
    Charge (ESU x 10^10)
                 0.0000
    Dipole Moment (Debye)
         X      -1.5999      Y       1.5059      Z       0.0005
       Tot       2.1972
    Quadrupole Moments (Debye-Ang)
        XX     -45.5621     XY      -2.9611     YY     -44.5955
        XZ      -0.0013     YZ       0.0017     ZZ     -59.3551
    Octopole Moments (Debye-Ang^2)
       XXX     -15.8469    XXY       8.5076    XYY      -7.8052
       YYY      10.2265    XXZ       0.0013    XYZ      -0.0033
       YYZ       0.0015    XZZ      -2.3457    YZZ       2.0424
       ZZZ      -0.0035
    Hexadecapole Moments (Debye-Ang^3)
      XXXX    -827.2452   XXXY     -22.4953   XXYY    -201.8424
      XYYY     -22.2936   YYYY    -381.6993   XXXZ       0.0011
      XXYZ       0.0049   XYYZ      -0.0032   YYYZ       0.0025
      XXZZ    -193.5093   XYZZ      -4.9243   YYZZ     -96.9407
      XZZZ       0.0084   YZZZ      -0.0052   ZZZZ     -75.6792
 -----------------------------------------------------------------
 Calculating analytic gradient of the CIS energy
 CIS relaxed dipole moment
            1
    1  -0.7207102
    2   0.4392536
    3   0.0000691
	Magnitude:	 0.844 au	 2.145 Debye
 CIS 1 State Energy is -363.4398436694
 Gradient of the state energy (including CIS Excitation Energy)
            1           2           3           4           5           6
    1  -0.0000303  -0.0001206   0.0000073  -0.0000617  -0.0001146  -0.0000128
    2  -0.0000775   0.0000620   0.0000000   0.0003620  -0.0003892  -0.0000023
    3   0.0000001   0.0000002  -0.0000005   0.0000006   0.0000047  -0.0000002
            7           8           9          10          11          12
    1   0.0000233   0.0002708  -0.0000291   0.0000083  -0.0000264   0.0000079
    2  -0.0002008   0.0000398   0.0002318   0.0000123   0.0000088  -0.0000335
    3  -0.0000089  -0.0000049   0.0000072   0.0000031  -0.0000009  -0.0000005
           13          14          15          16
    1   0.0000180   0.0000264   0.0000121   0.0000212
    2  -0.0000421  -0.0000215   0.0000308   0.0000194
    3  -0.0000002   0.0000000   0.0000001   0.0000001
 Gradient time:  CPU 40.12 s  wall 10.09 s
 Geometry Optimization Parameters
   NAtoms,    NIC,     NZ,  NCons,   NDum,   NFix, NCnnct, MaxDiis
       16     116       0       0       0       0       0       0

 Cartesian Hessian Update
 Hessian updated using BFGS update


** GEOMETRY OPTIMIZATION IN DELOCALIZED INTERNAL COORDINATES **
   Searching for a Minimum

   Optimization Cycle:   5

                       Coordinates (Angstroms)
     ATOM                X               Y               Z
      1  C         2.1611345710   -0.6843491769   -0.0000182865
      2  C         2.1544189319    0.7360804400    0.0000133142
      3  C         0.9341108905    1.4507529176    0.0000405350
      4  C        -0.2479602608    0.6818317109    0.0000233356
      5  C        -0.2607882196   -0.7735324319   -0.0000240115
      6  C         0.9676319173   -1.4571344088   -0.0000382534
      7  N        -1.5484212892    1.0724219143    0.0000267103
      8  C        -1.6352626647   -1.1730414596   -0.0000007571
      9  C        -2.4096851579   -0.0413490423    0.0001207423
     10  H        -1.8598528378    2.0325966128    0.0003897458
     11  H        -2.0066298892   -2.1887786436   -0.0000573593
     12  H        -3.4804857618    0.0913793046    0.0000995969
     13  H         3.0967026850    1.2715864296    0.0000128211
     14  H         0.9091154341    2.5350914918    0.0000223735
     15  H         3.1159835556   -1.2005910275   -0.0000342522
     16  H         1.0130830468   -2.5404121384   -0.0000502736
   Point Group: c1    Number of degrees of freedom:    42


   Energy is   -363.439843669

 Hessian updated using BFGS update

 40 Hessian modes will be used to form the next step
  Hessian Eigenvalues:
     0.018584    0.019737    0.020011    0.020794    0.021702    0.022202
     0.022636    0.023004    0.023236    0.023608    0.023851    0.024128
     0.115902    0.155128    0.160000    0.160013    0.160105    0.160153
     0.201382    0.215476    0.226227    0.242276    0.245916    0.297557
     0.356125    0.357166    0.357957    0.358902    0.361980    0.364743
     0.372903    0.382007    0.426562    0.434704    0.456211    0.471629
     0.472026    0.479502    0.493990    0.527023

 Minimum search - taking simple RFO step
 Searching for Lamda that Minimizes Along All modes
 Value Taken    Lamda =  -0.00000089
 Step Taken.  Stepsize is  0.002245

                             Maximum     Tolerance    Cnvgd?
         Gradient           0.000201      0.000300     YES
         Displacement       0.000868      0.001200     YES
         Energy change     -0.000003      0.000001      NO

 Final energy is   -363.439843669426     


 ******************************
 **  OPTIMIZATION CONVERGED  **
 ******************************

                       Coordinates (Angstroms)
     ATOM                X               Y               Z
      1  C         2.1611345710   -0.6843491769   -0.0000182865
      2  C         2.1544189319    0.7360804400    0.0000133142
      3  C         0.9341108905    1.4507529176    0.0000405350
      4  C        -0.2479602608    0.6818317109    0.0000233356
      5  C        -0.2607882196   -0.7735324319   -0.0000240115
      6  C         0.9676319173   -1.4571344088   -0.0000382534
      7  N        -1.5484212892    1.0724219143    0.0000267103
      8  C        -1.6352626647   -1.1730414596   -0.0000007571
      9  C        -2.4096851579   -0.0413490423    0.0001207423
     10  H        -1.8598528378    2.0325966128    0.0003897458
     11  H        -2.0066298892   -2.1887786436   -0.0000573593
     12  H        -3.4804857618    0.0913793046    0.0000995969
     13  H         3.0967026850    1.2715864296    0.0000128211
     14  H         0.9091154341    2.5350914918    0.0000223735
     15  H         3.1159835556   -1.2005910275   -0.0000342522
     16  H         1.0130830468   -2.5404121384   -0.0000502736

Z-matrix Print:
$molecule
0 1
C 
N  1 1.357851
H  2 1.009418 1 124.687916
C  2 1.407928 1 110.996783 3 -179.970994 0
H  4 1.078995 2 120.648380 1 -179.997744 0
C  4 1.371298 2 107.901686 1 -0.007887 0
H  6 1.081497 4 125.532884 2 -179.994279 0
C  1 1.410153 2 130.239037 3 -0.023926 0
H  8 1.084627 1 121.722944 2 -0.002338 0
C  8 1.414181 1 116.601205 2 -180.000000 0
H  10 1.083820 8 120.034808 1 180.000000 0
C  10 1.420445 8 120.626227 1 -0.000000 0
H  12 1.085469 10 118.668887 8 -180.000000 0
C  12 1.421846 10 122.651909 8 0.000000 0
H  14 1.084231 12 120.520243 10 -180.000000 0
C  14 1.405819 12 117.981759 10 -0.000000 0
$end

 
 --------------------------------------------------------------
 
                    Orbital Energies (a.u.)
 --------------------------------------------------------------
 
 Alpha MOs
 -- Occupied --
-14.4591 -10.3027 -10.3009 -10.2705 -10.2668 -10.2667 -10.2652 -10.2600
-10.2565  -1.0655  -0.9153  -0.8675  -0.8106  -0.7991  -0.7026  -0.6707
 -0.6559  -0.6107  -0.5599  -0.5405  -0.5030  -0.4993  -0.4939  -0.4794
 -0.4624  -0.4199  -0.4022  -0.3967  -0.3443  -0.2717  -0.2606
 -- Virtual --
  0.0182   0.0244   0.0430   0.0471   0.0593   0.0616   0.0630   0.0801
  0.0858   0.0899   0.0903   0.0936   0.1129   0.1194   0.1295   0.1310
  0.1410   0.1543   0.1659   0.1672   0.1813   0.1857   0.1933   0.1974
  0.2016   0.2169   0.2176   0.2187   0.2286   0.2337   0.2357   0.2436
  0.2493   0.2595   0.2621   0.2694   0.2701   0.2769   0.2913   0.2947
  0.3012   0.3084   0.3242   0.3337   0.3439   0.3539   0.3562   0.3717
  0.3881   0.4148   0.4230   0.4463   0.4832   0.5059   0.5646   0.6249
  0.6593   0.7295   0.7297   0.7548   0.7624   0.7764   0.7874   0.7925
  0.7933   0.8086   0.8103   0.8326   0.8479   0.8486   0.8703   0.9080
  0.9477   0.9551   0.9659   0.9949   1.0008   1.0103   1.0187   1.0434
  1.0524   1.0864   1.1068   1.1210   1.1510   1.1702   1.1754   1.2264
  1.2398   1.2660   1.2818   1.3049   1.3119   1.3743   1.3991   1.4179
  1.4272   1.4686   1.4836   1.4988   1.5382   1.5473   1.5717   1.5729
  1.5935   1.6521   1.7070   1.8601   1.8982   1.9497   1.9663   1.9738
  1.9998   2.0597   2.0651   2.0807   2.1130   2.1253   2.1936   2.2082
  2.2245   2.2666   2.3074   2.3138   2.3334   2.3408   2.3729   2.4412
  2.4854   2.5131   2.6107   2.6258   2.6955   2.7113   2.7218   2.7503
  2.7867   2.8629   2.9004   2.9120   3.0311   3.0404   3.1667   3.3005
  3.4627   4.2062   4.3044   4.3520   4.3871   4.4220   4.4602   4.5403
  4.5812   4.8357
 --------------------------------------------------------------
 
          Ground-State Mulliken Net Atomic Charges

     Atom                 Charge (a.u.)
  ----------------------------------------
      1 C                    -0.006431
      2 C                    -0.416880
      3 C                    -0.174925
      4 C                    -0.710569
      5 C                     1.093795
      6 C                    -0.684565
      7 N                    -0.532484
      8 C                     0.119428
      9 C                    -0.240710
     10 H                     0.418109
     11 H                     0.197079
     12 H                     0.201644
     13 H                     0.183299
     14 H                     0.185288
     15 H                     0.177616
     16 H                     0.190308
  ----------------------------------------
  Sum of atomic charges =     0.000000

 -----------------------------------------------------------------
                    Cartesian Multipole Moments
 -----------------------------------------------------------------
    Charge (ESU x 10^10)
                 0.0000
    Dipole Moment (Debye)
         X      -1.5999      Y       1.5059      Z       0.0005
       Tot       2.1972
    Quadrupole Moments (Debye-Ang)
        XX     -45.5621     XY      -2.9611     YY     -44.5955
        XZ      -0.0013     YZ       0.0017     ZZ     -59.3551
    Octopole Moments (Debye-Ang^2)
       XXX     -15.8469    XXY       8.5076    XYY      -7.8052
       YYY      10.2265    XXZ       0.0013    XYZ      -0.0033
       YYZ       0.0015    XZZ      -2.3457    YZZ       2.0424
       ZZZ      -0.0035
    Hexadecapole Moments (Debye-Ang^3)
      XXXX    -827.2452   XXXY     -22.4953   XXYY    -201.8424
      XYYY     -22.2936   YYYY    -381.6993   XXXZ       0.0011
      XXYZ       0.0049   XYYZ      -0.0032   YYYZ       0.0025
      XXZZ    -193.5093   XYZZ      -4.9243   YYZZ     -96.9407
      XZZZ       0.0084   YZZZ      -0.0052   ZZZZ     -75.6792
 -----------------------------------------------------------------
Archival summary:
1\1\exp-4-41\OPT\ProcedureUnspecified\6-31+G*\187\scaparas\WedJun2313:33:392021WedJun2313:33:392021\0\\#,OPT,ProcedureUnspecified,6-31+G*,\\0,1\C\N,1,1.35785\H,2,1.00942,1,124.688\C,2,1.40793,1,110.997,3,-179.971,0\H,4,1.079,2,120.648,1,-179.998,0\C,4,1.3713,2,107.902,1,-0.00788702,0\H,6,1.0815,4,125.533,2,-179.994,0\C,1,1.41015,2,130.239,3,-0.023926,0\H,8,1.08463,1,121.723,2,-0.00233779,0\C,8,1.41418,1,116.601,2,-180,0\H,10,1.08382,8,120.035,1,180,0\C,10,1.42045,8,120.626,1,-0,0\H,12,1.08547,10,118.669,8,-180,0\C,12,1.42185,10,122.652,8,0,0\H,14,1.08423,12,120.52,10,-180,0\C,14,1.40582,12,117.982,10,-0,0\\\@

 Total job time:  361.35s(wall), 1435.65s(cpu) 
 Wed Jun 23 13:33:39 2021

        *************************************************************
        *                                                           *
        *  Thank you very much for using Q-Chem.  Have a nice day.  *
        *                                                           *
        *************************************************************


