
Running Job 1 of 1 QfuncsM06-2X-VI-3rd.in
qchem QfuncsM06-2X-VI-3rd.in_75449.0 /scratch/scaparas/job_3585171/qchem75449/ 0
/cm/shared/apps/spack/cpu/opt/spack/linux-centos8-zen2/gcc-10.2.0/qchem-5.3-5qddma6gy34jvefiv7mbcb7qm253n45r/exe/qcprog.exe_s QfuncsM06-2X-VI-3rd.in_75449.0 /scratch/scaparas/job_3585171/qchem75449/
                  Welcome to Q-Chem
     A Quantum Leap Into The Future Of Chemistry


 Q-Chem 5.3, Q-Chem, Inc., Pleasanton, CA (2020)

 License issued to: University of California, San Diego (site)

 Yihan Shao,  Zhengting Gan,  E. Epifanovsky,  A. T. B. Gilbert,  M. Wormit,  
 J. Kussmann,  A. W. Lange,  A. Behn,  Jia Deng,  Xintian Feng,  D. Ghosh,  
 M. Goldey,  P. R. Horn,  L. D. Jacobson,  I. Kaliman,  T. Kus,  A. Landau,  
 Jie Liu,  E. I. Proynov,  R. M. Richard,  R. P. Steele,  E. J. Sundstrom,  
 H. L. Woodcock III,  P. M. Zimmerman,  D. Zuev,  B. Alam,  B. Albrecht,  
 A. Aldossary,  E. Alguire,  S. A. Baeppler,  D. Barton,  Z. Benda,  
 Y. A. Bernard,  E. J. Berquist,  K. B. Bravaya,  H. Burton,  K. Carter-Fenk,  
 D. Casanova,  Chun-Min Chang,  Yunqing Chen,  A. Chien,  K. D. Closser,  
 M. P. Coons,  S. Coriani,  S. Dasgupta,  A. L. Dempwolff,  M. Diedenhofen,  
 Hainam Do,  R. G. Edgar,  Po-Tung Fang,  S. Faraji,  S. Fatehi,  
 Qingguo Feng,  J. Fosso-Tande,  J. Gayvert,  Qinghui Ge,  A. Ghysels,  
 G. Gidofalvi,  J. Gomes,  J. Gonthier,  S. Gulania,  A. Gunina,  D. Hait,  
 M. W. D. Hanson-Heine,  S. Hammes-Schiffer,  P. H. P. Harbach,  
 A. W. Hauser,  M. F. Herbst,  J. E. Herr,  E. G. Hohenstein,  Z. C. Holden,  
 S. Houck,  Kerwin Hui,  B. C. Huynh,  M. Ivanov,  T.-C. Jagau,  Hyunjun Ji,  
 B. Kaduk,  K. Khistyaev,  Jaehoon Kim,  P. Klunzinger,  K. Koh,  
 D. Kosenkov,  L. Koulias,  T. Kowalczyk,  C. M. Krauter,  A. Kunitsa,  
 Ka Un Lao,  A. Laurent,  K. V. Lawler,  Joonho Lee,  D. Lefrancois,  
 S. Lehtola,  D. S. Levine,  Yi-Pei Li,  You-Sheng Lin,  Fenglai Liu,  
 Kuan-Yu Liu,  E. Livshits,  M. Loipersberger,  A. Luenser,  P. Manohar,  
 E. Mansoor,  S. F. Manzer,  Shan-Ping Mao,  Yuezhi Mao,  N. Mardirossian,  
 A. V. Marenich,  T. Markovich,  L. A. Martinez-Martinez,  S. A. Maurer,  
 N. J. Mayhall,  S. C. McKenzie,  J.-M. Mewes,  P. Morgante,  A. F. Morrison,  
 J. W. Mullinax,  K. Nanda,  T. S. Nguyen-Beck,  R. Olivares-Amaya,  
 K. J. Oosterbaan,  J. A. Parkhill,  S. K. Paul,  F. Pavosevic,  Zheng Pei,  
 T. M. Perrine,  F. Plasser,  P. Pokhilko,  S. Prager,  A. Prociuk,  
 E. Ramos,  B. Rana,  D. R. Rehn,  F. Rob,  E. Rossomme,  M. Scheurer,  
 M. Schneider,  N. Sergueev,  S. M. Sharada,  S. Sharma,  W. Skomorowski,  
 D. W. Small,  T. Stauch,  C. J. Stein,  T. Stein,  Yu-Chuan Su,  
 S. P. Veccham,  Zhen Tao,  A. J. W. Thom,  A. Tkatchenko,  T. Tsuchimochi,  
 N. M. Tubman,  L. Vogt,  M. L. Vidal,  O. Vydrov,  M. A. Watson,  J. Wenzel,  
 M. de Wergifosse,  T. A. Wesolowski,  A. White,  J. Witte,  A. Yamada,  
 Jun Yang,  K. Yao,  S. Yeganeh,  S. R. Yost,  Zhi-Qiang You,  A. Zech,  
 Igor Ying Zhang,  Xing Zhang,  Yan Zhao,  Ying Zhu,  B. R. Brooks,  
 G. K. L. Chan,  C. J. Cramer,  M. S. Gordon,  W. J. Hehre,  A. Klamt,  
 M. W. Schmidt,  C. D. Sherrill,  D. G. Truhlar,  A. Aspuru-Guzik,  R. Baer,  
 A. T. Bell,  N. A. Besley,  Jeng-Da Chai,  A. E. DePrince, III,  
 R. A. DiStasio Jr.,  A. Dreuw,  B. D. Dunietz,  T. R. Furlani,  
 Chao-Ping Hsu,  Yousung Jung,  Jing Kong,  D. S. Lambrecht,  WanZhen Liang,  
 C. Ochsenfeld,  V. A. Rassolov,  L. V. Slipchenko,  J. E. Subotnik,  
 T. Van Voorhis,  J. M. Herbert,  A. I. Krylov,  P. M. W. Gill,  M. Head-Gordon

 Contributors to earlier versions of Q-Chem not listed above: 
 R. D. Adamson,  B. Austin,  J. Baker,  G. J. O. Beran,  K. Brandhorst,  
 S. T. Brown,  E. F. C. Byrd,  A. K. Chakraborty,  C.-L. Cheng,  
 Siu Hung Chien,  D. M. Chipman,  D. L. Crittenden,  H. Dachsel,  
 R. J. Doerksen,  A. D. Dutoi,  L. Fusti-Molnar,  W. A. Goddard III,  
 A. Golubeva-Zadorozhnaya,  S. R. Gwaltney,  G. Hawkins,  A. Heyden,  
 S. Hirata,  G. Kedziora,  F. J. Keil,  C. Kelley,  Jihan Kim,  R. A. King,  
 R. Z. Khaliullin,  P. P. Korambath,  W. Kurlancheek,  A. M. Lee,  M. S. Lee,  
 S. V. Levchenko,  Ching Yeh Lin,  D. Liotard,  R. C. Lochan,  I. Lotan,  
 P. E. Maslen,  N. Nair,  D. P. O'Neill,  D. Neuhauser,  E. Neuscamman,  
 C. M. Oana,  R. Olson,  B. Peters,  R. Peverati,  P. A. Pieniazek,  
 Y. M. Rhee,  J. Ritchie,  M. A. Rohrdanz,  E. Rosta,  N. J. Russ,  
 H. F. Schaefer III,  N. E. Schultz,  N. Shenvi,  A. C. Simmonett,  A. Sodt,  
 D. Stuck,  K. S. Thanthiriwatte,  V. Vanovschi,  Tao Wang,  A. Warshel,  
 C. F. Williams,  Q. Wu,  X. Xu,  W. Zhang

 Please cite Q-Chem as follows:
 Y. Shao et al., Mol. Phys. 113, 184-215 (2015)
 DOI: 10.1080/00268976.2014.952696

 Q-Chem 5.3.1 for Intel X86 EM64T Linux

 Parts of Q-Chem use Armadillo 9.800.1 (Horizon Scraper).
 http://arma.sourceforge.net/

 Q-Chem begins on Wed Jun 23 13:40:55 2021  

Host: 
0

     Scratch files written to /scratch/scaparas/job_3585171/qchem75449//
 Aug2920 |scratch|qcdevops|jenkins|workspace|build_RNUM    
Processing $rem in /cm/shared/apps/spack/cpu/opt/spack/linux-centos8-zen2/gcc-10.2.0/qchem-5.3-5qddma6gy34jvefiv7mbcb7qm253n45r/config/preferences:
Processing $rem in /home/scaparas/.qchemrc:

Checking the input file for inconsistencies... 	...done.

--------------------------------------------------------------
User input:
--------------------------------------------------------------
$molecule
0 1
C   -2.1510630    0.6892080    0.0000880
C   -2.1279270   -0.7158180    0.0000750
C   -0.9322970   -1.4131000   -0.0000110
C    0.2469110   -0.6702010   -0.0000420
C    0.2481930    0.7482990    0.0000000
C   -0.9794740    1.4235260    0.0000320
N    1.5617740   -1.0775920   -0.0002850
C    1.6201330    1.1629000   -0.0001570
C    2.3820130    0.0308060    0.0002480
H    1.8763150   -2.0300110    0.0004380
H    1.9921730    2.1730100   -0.0003480
H    3.4525490   -0.0824250    0.0004080
H   -3.0615940   -1.2620200    0.0000880
H   -0.9172520   -2.4953420   -0.0000730
H   -3.1042030    1.2007850    0.0000900
H   -1.0093480    2.5054210   -0.0000150
$end

$rem
BASIS  =  6-31+G*
GUI  =  2
JOB_TYPE  =  Optimization
METHOD  = M06-2X
SCF_CONVERGENCE  =  8
THRESH = 12
CIS_N_ROOTS  = 3
CIS_SINGLETS = true
CIS_TRIPLETS = false
CIS_STATE_DERIV = 3
MEM_STATIC=500
MEM_TOTAL=3000
$end
--------------------------------------------------------------
 ----------------------------------------------------------------
             Standard Nuclear Orientation (Angstroms)
    I     Atom           X                Y                Z
 ----------------------------------------------------------------
    1      C       2.1510629040    -0.6892079969     0.0000583065
    2      C       2.1279268385     0.7158180020     0.0000481775
    3      C       0.9322968051     1.4130999466    -0.0000206639
    4      C      -0.2469111607     0.6702008918    -0.0000373513
    5      C      -0.2481930942    -0.7482991083     0.0000020775
    6      C       0.9794739374    -1.4235260513     0.0000165335
    7      N      -1.5617741827     1.0775918311    -0.0002621374
    8      C      -1.6201330769    -1.1629001718    -0.0001374500
    9      C      -2.3820131241    -0.0308062080     0.0002797387
   10      H      -1.8763152174     2.0300108152     0.0004667797
   11      H      -1.9921730325    -2.1730101887    -0.0003253498
   12      H      -3.4525491271     0.0824247420     0.0004541695
   13      H       3.0615938132     1.2620200454     0.0000497686
   14      H       0.9172517540     2.4953419460    -0.0000804893
   15      H       3.1042029277    -1.2007849526     0.0000467087
   16      H       1.0093479871    -2.5054210498    -0.0000328375
 ----------------------------------------------------------------
 Molecular Point Group                 C1    NOp =  1
 Largest Abelian Subgroup              C1    NOp =  1
 Nuclear Repulsion Energy =         401.33686680 hartrees
 There are       31 alpha and       31 beta electrons
 Requested basis set is 6-31+G(d)
 There are 59 shells and 185 basis functions

 Total QAlloc Memory Limit   3000 MB
 Mega-Array Size       489 MB
 MEM_STATIC part       500 MB
 A cutoff of  1.0D-12 yielded   1657 shell pairs
 There are     17105 function pairs
 Smallest overlap matrix eigenvalue = 1.26E-06

 Scale SEOQF with 1.000000e-01/1.000000e-01/1.000000e-01

 Standard Electronic Orientation quadrupole field applied
 Nucleus-field energy     =     0.0000000117 hartrees
 Guess from superposition of atomic densities
 Warning:  Energy on first SCF cycle will be non-variational
 SAD guess density has 62.000000 electrons

 -----------------------------------------------------------------------
  General SCF calculation program by
  Eric Jon Sundstrom, Paul Horn, Yuezhi Mao, Dmitri Zuev, Alec White,
  David Stuck, Shaama M.S., Shane Yost, Joonho Lee, David Small,
  Daniel Levine, Susi Lehtola, Hugh Burton, Evgeny Epifanovsky,
  Bang C. Huynh
 -----------------------------------------------------------------------
 Exchange:     0.5400 Hartree-Fock + 1.0000 M06-2X
 Correlation:  1.0000 M06-2X
 Using SG-3 standard quadrature grid
 using 4 threads for integral computing
 -------------------------------------------------------
 OpenMP Integral computing Module                
 Release: version 1.0, May 2013, Q-Chem Inc. Pittsburgh 
 -------------------------------------------------------
 A restricted SCF calculation will be
 performed using DIIS
 SCF converges when DIIS error is below 1.0e-08
 ---------------------------------------
  Cycle       Energy         DIIS error
 ---------------------------------------
    1    -366.8054562241      5.66e-02  
    2    -363.5894056040      4.05e-03  
    3    -363.6118420095      3.52e-03  
    4    -363.6670374853      8.84e-04  
    5    -363.6699374204      3.65e-04  
    6    -363.6704860012      5.34e-05  
    7    -363.6704969210      2.29e-05  
    8    -363.6704994196      4.18e-06  
    9    -363.6704995298      2.24e-06  
   10    -363.6704995651      6.05e-07  
   11    -363.6704995701      2.96e-07  
   12    -363.6704995707      7.86e-08  
   13    -363.6704995707      3.77e-08  
   14    -363.6704995708      1.25e-08  
   15    -363.6704995708      3.19e-09  Convergence criterion met
 ---------------------------------------
 SCF time:   CPU 292.92s  wall 73.00s 
 SCF   energy in the final basis set =     -363.6704995708
 Total energy in the final basis set =     -363.6704995708
 
 Direct TDDFT/TDA calculation will be performed
 Exchange:     0.5400 Hartree-Fock + 1.0000 M06-2X
 Correlation:  1.0000 M06-2X
 Using SG-3 standard quadrature grid
 Singlet excitation energies requested
 CIS energy converged when residual is below 10e- 6
 ---------------------------------------------------
 Iter    Rts Conv    Rts Left    Ttl Dev     Max Dev
 ---------------------------------------------------
   1         0           3      0.002217    0.001686
   2         0           3      0.000554    0.000413
   3         0           3      0.000261    0.000172
   4         0           3      0.000146    0.000077
   5         0           3      0.000089    0.000045
   6         0           3      0.000086    0.000045
   7         0           3      0.000781    0.000659
   8         1           2      0.000332    0.000240
   9         1           2      0.000134    0.000102
  10         1           2      0.000045    0.000034
  11         1           2      0.000011    0.000008
  12         2           1      0.000004    0.000002
  13         3           0      0.000002    0.000001    Roots Converged
 ---------------------------------------------------
 
 ---------------------------------------------------
         TDDFT/TDA Excitation Energies              
 ---------------------------------------------------

 Excited state   1: excitation energy (eV) =    5.1849
 Total energy for state  1:                  -363.47995909 au
    Multiplicity: Singlet
    Trans. Mom.:  0.0009 X  -0.0014 Y  -0.1240 Z
    Strength   :     0.0019546092
    D(   31) --> V(    1) amplitude =  0.9777

 Excited state   2: excitation energy (eV) =    5.2193
 Total energy for state  2:                  -363.47869533 au
    Multiplicity: Singlet
    Trans. Mom.: -0.2880 X  -0.3841 Y   0.0002 Z
    Strength   :     0.0294710838
    D(   30) --> V(    2) amplitude = -0.7849
    D(   31) --> V(    7) amplitude =  0.5271

 Excited state   3: excitation energy (eV) =    5.3280
 Total energy for state  3:                  -363.47469960 au
    Multiplicity: Singlet
    Trans. Mom.:  0.7932 X  -0.6170 Y   0.0001 Z
    Strength   :     0.1318267875
    D(   30) --> V(    7) amplitude =  0.2780
    D(   31) --> V(    2) amplitude =  0.9038
 
 ---------------------------------------------------
 Calculating Relaxed Density
 ---------------------------------------------------
 Iter    Rts Conv    Rts Left    Ttl Dev     Max Dev
 ---------------------------------------------------
   1         0           3      0.001136    0.000618
   2         0           3      0.000459    0.000258
   3         0           3      0.000121    0.000050
   4         0           3      0.000039    0.000020
   5         0           3      0.000011    0.000006
   6         1           2      0.000002    0.000001
   7         3           0      0.000000    0.000000    Roots Converged
 ---------------------------------------------------
  SETman timing summary (seconds)
  CPU time              1303.71s
  System time              0.00s
  Wall time              327.88s
 
 --------------------------------------------------------------
 
                    Orbital Energies (a.u.)
 --------------------------------------------------------------
 
 Alpha MOs
 -- Occupied --
-14.8103 -10.5858 -10.5828 -10.5521 -10.5471 -10.5465 -10.5463 -10.5409
-10.5380  -1.0958  -0.9452  -0.8833  -0.8326  -0.8132  -0.7104  -0.6787
 -0.6643  -0.6189  -0.5564  -0.5443  -0.5052  -0.4996  -0.4987  -0.4775
 -0.4566  -0.4165  -0.4031  -0.3946  -0.3397  -0.2744  -0.2566
 -- Virtual --
  0.0073   0.0131   0.0262   0.0305   0.0434   0.0458   0.0518   0.0665
  0.0672   0.0704   0.0751   0.0766   0.0980   0.1045   0.1090   0.1101
  0.1260   0.1373   0.1485   0.1523   0.1625   0.1646   0.1746   0.1793
  0.1865   0.1963   0.1986   0.2029   0.2116   0.2163   0.2229   0.2310
  0.2332   0.2419   0.2485   0.2523   0.2588   0.2618   0.2702   0.2770
  0.2891   0.2912   0.3083   0.3178   0.3330   0.3436   0.3460   0.3587
  0.3794   0.4034   0.4122   0.4392   0.4845   0.4919   0.5586   0.6303
  0.6767   0.7161   0.7184   0.7456   0.7598   0.7671   0.7776   0.7833
  0.7899   0.8003   0.8053   0.8242   0.8399   0.8465   0.8610   0.9010
  0.9401   0.9578   0.9661   0.9885   0.9994   1.0046   1.0179   1.0331
  1.0509   1.0778   1.0954   1.1170   1.1332   1.1545   1.1577   1.2091
  1.2172   1.2414   1.2604   1.2900   1.2937   1.3553   1.3773   1.3978
  1.4009   1.4506   1.4730   1.4866   1.5182   1.5240   1.5559   1.5632
  1.5740   1.6243   1.6860   1.8271   1.8889   1.9316   1.9409   1.9611
  1.9901   2.0448   2.0526   2.0534   2.1124   2.1428   2.1851   2.2156
  2.2170   2.2405   2.2935   2.3013   2.3062   2.3257   2.3504   2.4194
  2.4498   2.4837   2.5853   2.5957   2.6665   2.6855   2.6996   2.7300
  2.7625   2.8388   2.8761   2.8828   2.9755   3.0012   3.1398   3.2575
  3.4593   4.1833   4.2868   4.3186   4.3525   4.3900   4.4256   4.5072
  4.5461   4.8143
 --------------------------------------------------------------
 
          Ground-State Mulliken Net Atomic Charges

     Atom                 Charge (a.u.)
  ----------------------------------------
      1 C                    -0.020129
      2 C                    -0.484764
      3 C                    -0.016970
      4 C                    -0.927505
      5 C                     1.043838
      6 C                    -0.613610
      7 N                    -0.539293
      8 C                     0.168275
      9 C                    -0.284667
     10 H                     0.437742
     11 H                     0.216215
     12 H                     0.216921
     13 H                     0.199064
     14 H                     0.201641
     15 H                     0.197534
     16 H                     0.205707
  ----------------------------------------
  Sum of atomic charges =     0.000000

 -----------------------------------------------------------------
                    Cartesian Multipole Moments
 -----------------------------------------------------------------
    Charge (ESU x 10^10)
                -0.0000
    Dipole Moment (Debye)
         X      -1.5068      Y       1.5635      Z       0.0011
       Tot       2.1714
    Quadrupole Moments (Debye-Ang)
        XX     -45.0529     XY      -3.1512     YY     -44.3465
        XZ      -0.0033     YZ       0.0033     ZZ     -58.9845
    Octopole Moments (Debye-Ang^2)
       XXX     -15.0004    XXY       8.2607    XYY      -7.9577
       YYY      10.5207    XXZ       0.0078    XYZ      -0.0067
       YYZ       0.0021    XZZ      -2.0022    YZZ       2.0070
       ZZZ      -0.0009
    Hexadecapole Moments (Debye-Ang^3)
      XXXX    -808.3168   XXXY     -21.5007   XXYY    -194.9130
      XYYY     -19.6855   YYYY    -366.6908   XXXZ      -0.0245
      XXYZ       0.0132   XYYZ      -0.0072   YYYZ       0.0145
      XXZZ    -188.4798   XYZZ      -3.8993   YYZZ     -93.2817
      XZZZ      -0.0011   YZZZ       0.0029   ZZZZ     -72.3214
 -----------------------------------------------------------------
 Calculating analytic gradient of the CIS energy
 CIS relaxed dipole moment
            1
    1  -1.7578924
    2   0.5736768
    3   0.0022845
	Magnitude:	 1.849 au	 4.700 Debye
 CIS 3 State Energy is -363.4746995991
 Gradient of the state energy (including CIS Excitation Energy)
            1           2           3           4           5           6
    1  -0.0240598  -0.0321274   0.0335680  -0.0144983   0.0205453   0.0066922
    2  -0.0276722   0.0361959  -0.0340291   0.0193297  -0.0107168   0.0344309
    3  -0.0000018   0.0000007   0.0000111   0.0000057   0.0000191   0.0000210
            7           8           9          10          11          12
    1   0.0290688  -0.0472096   0.0227110   0.0035665   0.0018568   0.0034089
    2   0.0286338   0.0233743  -0.0637187  -0.0073322   0.0032827  -0.0011103
    3  -0.0000808  -0.0000317   0.0000640   0.0000128  -0.0000033   0.0000008
           13          14          15          16
    1  -0.0024961   0.0008403  -0.0023593   0.0004928
    2  -0.0012640  -0.0026831   0.0006558   0.0026233
    3  -0.0000003  -0.0000055  -0.0000035  -0.0000083
 Gradient time:  CPU 78.23 s  wall 19.67 s
 Geometry Optimization Parameters
   NAtoms,    NIC,     NZ,  NCons,   NDum,   NFix, NCnnct, MaxDiis
       16     116       0       0       0       0       0       0


** GEOMETRY OPTIMIZATION IN DELOCALIZED INTERNAL COORDINATES **
   Searching for a Minimum

   Optimization Cycle:   1

                       Coordinates (Angstroms)
     ATOM                X               Y               Z
      1  C         2.1510629040   -0.6892079969    0.0000583065
      2  C         2.1279268385    0.7158180020    0.0000481775
      3  C         0.9322968051    1.4130999466   -0.0000206639
      4  C        -0.2469111607    0.6702008918   -0.0000373513
      5  C        -0.2481930942   -0.7482991083    0.0000020775
      6  C         0.9794739374   -1.4235260513    0.0000165335
      7  N        -1.5617741827    1.0775918311   -0.0002621374
      8  C        -1.6201330769   -1.1629001718   -0.0001374500
      9  C        -2.3820131241   -0.0308062080    0.0002797387
     10  H        -1.8763152174    2.0300108152    0.0004667797
     11  H        -1.9921730325   -2.1730101887   -0.0003253498
     12  H        -3.4525491271    0.0824247420    0.0004541695
     13  H         3.0615938132    1.2620200454    0.0000497686
     14  H         0.9172517540    2.4953419460   -0.0000804893
     15  H         3.1042029277   -1.2007849526    0.0000467087
     16  H         1.0093479871   -2.5054210498   -0.0000328375
   Point Group: c1    Number of degrees of freedom:    42


   Energy is   -363.474699599


 Attempting to generate delocalized internal coordinates
 Initial Hessian constructed with Jon Baker's OPTIMIZE code

 42 Hessian modes will be used to form the next step
  Hessian Eigenvalues:
     0.018594    0.019738    0.020011    0.020794    0.021683    0.022200
     0.022636    0.023004    0.023236    0.023608    0.023851    0.023984
     0.024127    0.160000    0.160000    0.160000    0.160000    0.160000
     0.160000    0.160000    0.220000    0.221879    0.226618    0.240111
     0.246509    0.357123    0.357170    0.357835    0.357899    0.364196
     0.364272    0.370088    0.384319    0.426334    0.434649    0.457693
     0.466917    0.471622    0.474685    0.475669    0.481247    0.509555

 Minimum search - taking simple RFO step
 Searching for Lamda that Minimizes Along All modes
 Value Taken    Lamda =  -0.01781326
 Step Taken.  Stepsize is  0.200018

                             Maximum     Tolerance    Cnvgd?
         Gradient           0.032418      0.000300      NO
         Displacement       0.076587      0.001200      NO
         Energy change     *********      0.000001      NO


 New Cartesian Coordinates Obtained by Inverse Iteration

 Displacement from previous Coordinates is:  0.268536
 ----------------------------------------------------------------
             Standard Nuclear Orientation (Angstroms)
    I     Atom           X                Y                Z
 ----------------------------------------------------------------
    1      C       2.1883930828    -0.6956996859    -0.0000422883
    2      C       2.1477957948     0.7011950736    -0.0000343464
    3      C       0.9135349574     1.4278324214     0.0000180920
    4      C      -0.2558091445     0.6568903736     0.0000815757
    5      C      -0.2412435819    -0.7580141759     0.0000661535
    6      C       0.9991985203    -1.4640679622    -0.0000309934
    7      N      -1.5930683730     1.0723237680    -0.0000210906
    8      C      -1.6055806116    -1.1511837157     0.0000800492
    9      C      -2.4180119237     0.0061738643     0.0000435828
   10      H      -1.9052496149     2.0347079546     0.0005560739
   11      H      -1.9794846847    -2.1661010299    -0.0000769075
   12      H      -3.4927793405     0.1254456737    -0.0000523318
   13      H       3.0830626612     1.2524408608    -0.0000555225
   14      H       0.8844175795     2.5135919057     0.0000548268
   15      H       3.1527244292    -1.1932375095    -0.0000625246
   16      H       1.0251952010    -2.5497453240     0.0000016324
 ----------------------------------------------------------------
 Molecular Point Group                 C1    NOp =  1
 Largest Abelian Subgroup              C1    NOp =  1
 Nuclear Repulsion Energy =         397.97430192 hartrees
 There are       31 alpha and       31 beta electrons
 Applying Cartesian multipole field
    Component          Value
    ---------          -----
     (2,0,0)        1.00000E-11
     (0,2,0)        2.00000E-11
     (0,0,2)       -3.00000E-11
 Nucleus-field energy     =     0.0000000119 hartrees
 Requested basis set is 6-31+G(d)
 There are 59 shells and 185 basis functions
 A cutoff of  1.0D-12 yielded   1657 shell pairs
 There are     17105 function pairs
 Smallest overlap matrix eigenvalue = 1.31E-06
 Guess MOs from SCF MO coefficient file

 -----------------------------------------------------------------------
  General SCF calculation program by
  Eric Jon Sundstrom, Paul Horn, Yuezhi Mao, Dmitri Zuev, Alec White,
  David Stuck, Shaama M.S., Shane Yost, Joonho Lee, David Small,
  Daniel Levine, Susi Lehtola, Hugh Burton, Evgeny Epifanovsky,
  Bang C. Huynh
 -----------------------------------------------------------------------
 Exchange:     0.5400 Hartree-Fock + 1.0000 M06-2X
 Correlation:  1.0000 M06-2X
 Using SG-3 standard quadrature grid
 using 4 threads for integral computing
 -------------------------------------------------------
 OpenMP Integral computing Module                
 Release: version 1.0, May 2013, Q-Chem Inc. Pittsburgh 
 -------------------------------------------------------
 A restricted SCF calculation will be
 performed using DIIS
 SCF converges when DIIS error is below 1.0e-08
 ---------------------------------------
  Cycle       Energy         DIIS error
 ---------------------------------------
    1    -363.6586474601      9.21e-04  
    2    -363.6631875025      2.30e-04  
    3    -363.6633675949      1.55e-04  
    4    -363.6634709236      4.06e-05  
    5    -363.6634783844      1.88e-05  
    6    -363.6634806348      6.70e-06  
    7    -363.6634809312      2.20e-06  
    8    -363.6634809818      7.42e-07  
    9    -363.6634809858      3.02e-07  
   10    -363.6634809863      6.90e-08  
   11    -363.6634809863      3.31e-08  
   12    -363.6634809863      1.03e-08  
   13    -363.6634809863      2.93e-09  Convergence criterion met
 ---------------------------------------
 SCF time:   CPU 257.37s  wall 65.00s 
 SCF   energy in the final basis set =     -363.6634809863
 Total energy in the final basis set =     -363.6634809863
 
 Direct TDDFT/TDA calculation will be performed
 Exchange:     0.5400 Hartree-Fock + 1.0000 M06-2X
 Correlation:  1.0000 M06-2X
 Using SG-3 standard quadrature grid
 Singlet excitation energies requested
 CIS energy converged when residual is below 10e- 6
 ---------------------------------------------------
 Iter    Rts Conv    Rts Left    Ttl Dev     Max Dev
 ---------------------------------------------------
   1         0           3      0.002247    0.001732
   2         0           3      0.000491    0.000358
   3         0           3      0.000229    0.000147
   4         0           3      0.000121    0.000063
   5         0           3      0.000061    0.000029
   6         0           3      0.000054    0.000028
   7         1           2      0.000688    0.000657
   8         1           2      0.000322    0.000299
   9         1           2      0.000135    0.000124
  10         1           2      0.000049    0.000045
  11         1           2      0.000016    0.000015
  12         2           1      0.000006    0.000005
  13         2           1      0.000002    0.000002
  14         3           0      0.000001    0.000001    Roots Converged
 ---------------------------------------------------
 
 ---------------------------------------------------
         TDDFT/TDA Excitation Energies              
 ---------------------------------------------------

 Excited state   1: excitation energy (eV) =    4.8635
 Total energy for state  1:                  -363.48475189 au
    Multiplicity: Singlet
    Trans. Mom.: -0.0229 X   0.0182 Y   0.1329 Z
    Strength   :     0.0022073946
    D(   31) --> V(    2) amplitude =  0.9810

 Excited state   2: excitation energy (eV) =    4.8662
 Total energy for state  2:                  -363.48465148 au
    Multiplicity: Singlet
    Trans. Mom.: -0.9357 X   0.7450 Y  -0.0032 Z
    Strength   :     0.1705667546
    D(   31) --> V(    1) amplitude =  0.9287

 Excited state   3: excitation energy (eV) =    5.0974
 Total energy for state  3:                  -363.47615381 au
    Multiplicity: Singlet
    Trans. Mom.: -0.0501 X  -0.3119 Y   0.0001 Z
    Strength   :     0.0124600115
    D(   30) --> V(    1) amplitude = -0.7465
    D(   31) --> V(    7) amplitude =  0.5921
 
 ---------------------------------------------------
 Calculating Relaxed Density
 ---------------------------------------------------
 Iter    Rts Conv    Rts Left    Ttl Dev     Max Dev
 ---------------------------------------------------
   1         0           3      0.001251    0.000669
   2         0           3      0.000489    0.000261
   3         0           3      0.000130    0.000054
   4         0           3      0.000043    0.000021
   5         0           3      0.000012    0.000006
   6         2           1      0.000001    0.000001
   7         3           0      0.000000    0.000000    Roots Converged
 ---------------------------------------------------
  SETman timing summary (seconds)
  CPU time              1298.27s
  System time              0.00s
  Wall time              326.50s
 
 --------------------------------------------------------------
 
                    Orbital Energies (a.u.)
 --------------------------------------------------------------
 
 Alpha MOs
 -- Occupied --
-14.8144 -10.5909 -10.5867 -10.5607 -10.5556 -10.5522 -10.5509 -10.5480
-10.5390  -1.0975  -0.9398  -0.8754  -0.8354  -0.8026  -0.7121  -0.6786
 -0.6592  -0.6176  -0.5564  -0.5448  -0.5037  -0.4998  -0.4988  -0.4676
 -0.4577  -0.4140  -0.4010  -0.3997  -0.3333  -0.2818  -0.2455
 -- Virtual --
  0.0039   0.0060   0.0259   0.0309   0.0427   0.0460   0.0499   0.0667
  0.0672   0.0696   0.0741   0.0764   0.0988   0.1030   0.1087   0.1095
  0.1257   0.1383   0.1470   0.1511   0.1607   0.1624   0.1726   0.1788
  0.1868   0.1957   0.1971   0.2041   0.2108   0.2141   0.2241   0.2299
  0.2301   0.2380   0.2483   0.2505   0.2515   0.2592   0.2684   0.2764
  0.2874   0.2918   0.3038   0.3149   0.3256   0.3369   0.3428   0.3575
  0.3759   0.3922   0.4050   0.4257   0.4691   0.4889   0.5539   0.6196
  0.6566   0.7133   0.7188   0.7442   0.7595   0.7690   0.7747   0.7783
  0.7811   0.8016   0.8047   0.8209   0.8346   0.8380   0.8525   0.8983
  0.9345   0.9494   0.9584   0.9909   0.9986   1.0047   1.0156   1.0371
  1.0426   1.0737   1.0944   1.1089   1.1273   1.1486   1.1589   1.2074
  1.2100   1.2398   1.2551   1.2808   1.2933   1.3522   1.3740   1.3909
  1.4004   1.4359   1.4627   1.4745   1.5228   1.5276   1.5487   1.5540
  1.5731   1.6175   1.6681   1.8198   1.8641   1.9219   1.9351   1.9399
  1.9816   2.0370   2.0423   2.0443   2.0784   2.1073   2.1667   2.1952
  2.1988   2.2329   2.2655   2.2849   2.3038   2.3114   2.3348   2.3999
  2.4324   2.4842   2.5580   2.5816   2.6456   2.6656   2.6751   2.6978
  2.7444   2.8156   2.8518   2.8621   2.9599   2.9856   3.1024   3.2421
  3.4045   4.1796   4.2664   4.3073   4.3396   4.3805   4.4251   4.4977
  4.5395   4.7966
 --------------------------------------------------------------
 
          Ground-State Mulliken Net Atomic Charges

     Atom                 Charge (a.u.)
  ----------------------------------------
      1 C                    -0.060203
      2 C                    -0.427305
      3 C                    -0.176917
      4 C                    -0.941987
      5 C                     1.142870
      6 C                    -0.474149
      7 N                    -0.511697
      8 C                     0.002830
      9 C                    -0.238982
     10 H                     0.438561
     11 H                     0.210339
     12 H                     0.222334
     13 H                     0.198630
     14 H                     0.204694
     15 H                     0.200470
     16 H                     0.210511
  ----------------------------------------
  Sum of atomic charges =     0.000000

 -----------------------------------------------------------------
                    Cartesian Multipole Moments
 -----------------------------------------------------------------
    Charge (ESU x 10^10)
                 0.0000
    Dipole Moment (Debye)
         X      -1.4959      Y       1.7289      Z       0.0007
       Tot       2.2862
    Quadrupole Moments (Debye-Ang)
        XX     -44.6904     XY      -3.9035     YY     -44.4244
        XZ      -0.0013     YZ       0.0027     ZZ     -59.4544
    Octopole Moments (Debye-Ang^2)
       XXX     -15.9978    XXY       9.4867    XYY      -7.5351
       YYY      11.5143    XXZ       0.0002    XYZ      -0.0055
       YYZ       0.0033    XZZ      -2.0890    YZZ       2.3580
       ZZZ      -0.0038
    Hexadecapole Moments (Debye-Ang^3)
      XXXX    -816.4734   XXXY     -22.2825   XXYY    -199.7875
      XYYY     -17.3140   YYYY    -369.9434   XXXZ       0.0058
      XXYZ       0.0098   XYYZ      -0.0050   YYYZ       0.0105
      XXZZ    -193.3973   XYZZ      -2.5809   YYZZ     -95.1712
      XZZZ       0.0103   YZZZ      -0.0007   ZZZZ     -73.8858
 -----------------------------------------------------------------
 Calculating analytic gradient of the CIS energy
 CIS relaxed dipole moment
            1
    1  -0.7938120
    2   0.5017522
    3   0.0002453
	Magnitude:	 0.939 au	 2.387 Debye
 CIS 3 State Energy is -363.4761538134
 Gradient of the state energy (including CIS Excitation Energy)
            1           2           3           4           5           6
    1  -0.0008490   0.0027441  -0.0101864   0.0087603  -0.0043257   0.0181350
    2   0.0186099  -0.0345326   0.0039205  -0.0433264   0.0321006  -0.0033766
    3   0.0000020  -0.0000014  -0.0000035   0.0000027   0.0000059  -0.0000066
            7           8           9          10          11          12
    1  -0.0389654   0.0283462   0.0000456  -0.0032967   0.0005337  -0.0010987
    2  -0.0226215  -0.0046693   0.0504237   0.0007303   0.0001091   0.0022226
    3  -0.0000126   0.0000101  -0.0000016   0.0000084  -0.0000045  -0.0000019
           13          14          15          16
    1   0.0010199  -0.0016371   0.0003944   0.0003798
    2  -0.0005023   0.0010095   0.0010296  -0.0011271
    3  -0.0000004   0.0000019  -0.0000000   0.0000016
 Gradient time:  CPU 77.60 s  wall 19.51 s
 Geometry Optimization Parameters
   NAtoms,    NIC,     NZ,  NCons,   NDum,   NFix, NCnnct, MaxDiis
       16     116       0       0       0       0       0       0

 Cartesian Hessian Update
 Hessian updated using BFGS update


** GEOMETRY OPTIMIZATION IN DELOCALIZED INTERNAL COORDINATES **
   Searching for a Minimum

   Optimization Cycle:   2

                       Coordinates (Angstroms)
     ATOM                X               Y               Z
      1  C         2.1883930828   -0.6956996859   -0.0000422883
      2  C         2.1477957948    0.7011950736   -0.0000343464
      3  C         0.9135349574    1.4278324214    0.0000180920
      4  C        -0.2558091445    0.6568903736    0.0000815757
      5  C        -0.2412435819   -0.7580141759    0.0000661535
      6  C         0.9991985203   -1.4640679622   -0.0000309934
      7  N        -1.5930683730    1.0723237680   -0.0000210906
      8  C        -1.6055806116   -1.1511837157    0.0000800492
      9  C        -2.4180119237    0.0061738643    0.0000435828
     10  H        -1.9052496149    2.0347079546    0.0005560739
     11  H        -1.9794846847   -2.1661010299   -0.0000769075
     12  H        -3.4927793405    0.1254456737   -0.0000523318
     13  H         3.0830626612    1.2524408608   -0.0000555225
     14  H         0.8844175795    2.5135919057    0.0000548268
     15  H         3.1527244292   -1.1932375095   -0.0000625246
     16  H         1.0251952010   -2.5497453240    0.0000016324
   Point Group: c1    Number of degrees of freedom:    42


   Energy is   -363.476153813

 Hessian updated using BFGS update

 39 Hessian modes will be used to form the next step
  Hessian Eigenvalues:
     0.018594    0.019738    0.020011    0.020794    0.021683    0.022200
     0.022636    0.023004    0.023608    0.023851    0.023984    0.024127
     0.159796    0.160000    0.160000    0.160000    0.160404    0.214666
     0.221955    0.226221    0.246186    0.250546    0.353166    0.357147
     0.357413    0.357875    0.361090    0.364236    0.369833    0.376872
     0.388370    0.427408    0.449406    0.459059    0.467169    0.471769
     0.476308    0.491789    0.976644

 Minimum search - taking simple RFO step
 Searching for Lamda that Minimizes Along All modes
 Value Taken    Lamda =  -0.00709814
 Step Taken.  Stepsize is  0.101329

                             Maximum     Tolerance    Cnvgd?
         Gradient           0.040216      0.000300      NO
         Displacement       0.060715      0.001200      NO
         Energy change     -0.001454      0.000001      NO


 New Cartesian Coordinates Obtained by Inverse Iteration

 Displacement from previous Coordinates is:  0.155822
 ----------------------------------------------------------------
             Standard Nuclear Orientation (Angstroms)
    I     Atom           X                Y                Z
 ----------------------------------------------------------------
    1      C       2.1802040033    -0.6930965755    -0.0000777914
    2      C       2.1581819061     0.7219569555    -0.0000531171
    3      C       0.9239505223     1.4516472136     0.0000423898
    4      C      -0.2462343241     0.6733651318     0.0001240064
    5      C      -0.2532010241    -0.7669515886     0.0000751133
    6      C       0.9813672015    -1.4695998361    -0.0000495752
    7      N      -1.5774750353     1.0728791277     0.0000717675
    8      C      -1.6183785910    -1.1717260730     0.0001432536
    9      C      -2.4143863036    -0.0120843947    -0.0000347710
   10      H      -1.8861907895     2.0370093537     0.0005386105
   11      H      -1.9968242689    -2.1863969406     0.0000294518
   12      H      -3.4892761326     0.1042353138    -0.0002052123
   13      H       3.0959402421     1.2694477450    -0.0000779337
   14      H       0.8993939906     2.5373397642     0.0001072324
   15      H       3.1403431920    -1.2004392904    -0.0001033107
   16      H       1.0056803625    -2.5550334138    -0.0000041330
 ----------------------------------------------------------------
 Molecular Point Group                 C1    NOp =  1
 Largest Abelian Subgroup              C1    NOp =  1
 Nuclear Repulsion Energy =         396.51974941 hartrees
 There are       31 alpha and       31 beta electrons
 Applying Cartesian multipole field
    Component          Value
    ---------          -----
     (2,0,0)        1.00000E-11
     (0,2,0)        2.00000E-11
     (0,0,2)       -3.00000E-11
 Nucleus-field energy     =     0.0000000120 hartrees
 Requested basis set is 6-31+G(d)
 There are 59 shells and 185 basis functions
 A cutoff of  1.0D-12 yielded   1656 shell pairs
 There are     17099 function pairs
 Smallest overlap matrix eigenvalue = 1.42E-06
 Guess MOs from SCF MO coefficient file

 -----------------------------------------------------------------------
  General SCF calculation program by
  Eric Jon Sundstrom, Paul Horn, Yuezhi Mao, Dmitri Zuev, Alec White,
  David Stuck, Shaama M.S., Shane Yost, Joonho Lee, David Small,
  Daniel Levine, Susi Lehtola, Hugh Burton, Evgeny Epifanovsky,
  Bang C. Huynh
 -----------------------------------------------------------------------
 Exchange:     0.5400 Hartree-Fock + 1.0000 M06-2X
 Correlation:  1.0000 M06-2X
 Using SG-3 standard quadrature grid
 using 4 threads for integral computing
 -------------------------------------------------------
 OpenMP Integral computing Module                
 Release: version 1.0, May 2013, Q-Chem Inc. Pittsburgh 
 -------------------------------------------------------
 A restricted SCF calculation will be
 performed using DIIS
 SCF converges when DIIS error is below 1.0e-08
 ---------------------------------------
  Cycle       Energy         DIIS error
 ---------------------------------------
    1    -363.6628657339      6.36e-04  
    2    -363.6645633635      1.34e-04  
    3    -363.6645963714      1.16e-04  
    4    -363.6646537927      2.00e-05  
    5    -363.6646557831      8.42e-06  
    6    -363.6646562326      3.59e-06  
    7    -363.6646563226      1.20e-06  
    8    -363.6646563387      5.12e-07  
    9    -363.6646563407      2.47e-07  
   10    -363.6646563410      4.20e-08  
   11    -363.6646563410      2.68e-08  
   12    -363.6646563410      5.70e-09  Convergence criterion met
 ---------------------------------------
 SCF time:   CPU 237.10s  wall 60.00s 
 SCF   energy in the final basis set =     -363.6646563410
 Total energy in the final basis set =     -363.6646563410
 
 Direct TDDFT/TDA calculation will be performed
 Exchange:     0.5400 Hartree-Fock + 1.0000 M06-2X
 Correlation:  1.0000 M06-2X
 Using SG-3 standard quadrature grid
 Singlet excitation energies requested
 CIS energy converged when residual is below 10e- 6
 ---------------------------------------------------
 Iter    Rts Conv    Rts Left    Ttl Dev     Max Dev
 ---------------------------------------------------
   1         0           3      0.002264    0.001746
   2         0           3      0.000524    0.000387
   3         0           3      0.000252    0.000155
   4         0           3      0.000168    0.000087
   5         0           3      0.000091    0.000061
   6         0           3      0.000049    0.000036
   7         0           3      0.000031    0.000024
   8         1           2      0.001033    0.001021
   9         1           2      0.000427    0.000407
  10         1           2      0.000190    0.000169
  11         1           2      0.000050    0.000043
  12         1           2      0.000016    0.000013
  13         2           1      0.000004    0.000003
  14         2           1      0.000002    0.000001
  15         3           0      0.000001    0.000000    Roots Converged
 ---------------------------------------------------
 
 ---------------------------------------------------
         TDDFT/TDA Excitation Energies              
 ---------------------------------------------------

 Excited state   1: excitation energy (eV) =    4.9630
 Total energy for state  1:                  -363.48226780 au
    Multiplicity: Singlet
    Trans. Mom.: -0.8836 X   0.7211 Y   0.0001 Z
    Strength   :     0.1581655630
    D(   30) --> V(    7) amplitude =  0.2426
    D(   31) --> V(    1) amplitude =  0.9157

 Excited state   2: excitation energy (eV) =    4.9814
 Total energy for state  2:                  -363.48159406 au
    Multiplicity: Singlet
    Trans. Mom.: -0.0006 X  -0.0003 Y  -0.1356 Z
    Strength   :     0.0022432953
    D(   31) --> V(    2) amplitude =  0.9803

 Excited state   3: excitation energy (eV) =    4.9928
 Total energy for state  3:                  -363.48117493 au
    Multiplicity: Singlet
    Trans. Mom.: -0.1893 X  -0.3749 Y   0.0002 Z
    Strength   :     0.0215782728
    D(   30) --> V(    1) amplitude = -0.7729
    D(   31) --> V(    7) amplitude =  0.5560
 
 ---------------------------------------------------
 Calculating Relaxed Density
 ---------------------------------------------------
 Iter    Rts Conv    Rts Left    Ttl Dev     Max Dev
 ---------------------------------------------------
   1         0           3      0.001224    0.000676
   2         0           3      0.000482    0.000268
   3         0           3      0.000127    0.000052
   4         0           3      0.000043    0.000022
   5         0           3      0.000012    0.000006
   6         1           2      0.000002    0.000001
   7         3           0      0.000000    0.000000    Roots Converged
 ---------------------------------------------------
  SETman timing summary (seconds)
  CPU time              1364.38s
  System time              0.00s
  Wall time              343.10s
 
 --------------------------------------------------------------
 
                    Orbital Energies (a.u.)
 --------------------------------------------------------------
 
 Alpha MOs
 -- Occupied --
-14.8145 -10.5923 -10.5894 -10.5615 -10.5563 -10.5551 -10.5532 -10.5500
-10.5421  -1.0931  -0.9341  -0.8771  -0.8288  -0.8049  -0.7099  -0.6780
 -0.6589  -0.6149  -0.5585  -0.5413  -0.5030  -0.4981  -0.4961  -0.4707
 -0.4574  -0.4128  -0.4001  -0.3967  -0.3365  -0.2755  -0.2491
 -- Virtual --
  0.0039   0.0066   0.0259   0.0305   0.0427   0.0454   0.0474   0.0665
  0.0668   0.0694   0.0739   0.0766   0.0981   0.1035   0.1084   0.1089
  0.1262   0.1380   0.1468   0.1508   0.1605   0.1628   0.1728   0.1781
  0.1863   0.1963   0.1972   0.2034   0.2106   0.2137   0.2216   0.2282
  0.2292   0.2385   0.2466   0.2503   0.2508   0.2591   0.2687   0.2760
  0.2854   0.2898   0.3047   0.3128   0.3241   0.3340   0.3409   0.3541
  0.3709   0.3917   0.4036   0.4254   0.4658   0.4859   0.5502   0.6118
  0.6447   0.7125   0.7191   0.7449   0.7541   0.7683   0.7722   0.7755
  0.7820   0.8004   0.8005   0.8208   0.8307   0.8375   0.8537   0.8970
  0.9322   0.9504   0.9595   0.9898   0.9990   1.0040   1.0154   1.0334
  1.0398   1.0748   1.0950   1.1099   1.1263   1.1482   1.1540   1.2050
  1.2095   1.2359   1.2557   1.2765   1.2944   1.3488   1.3750   1.3901
  1.3996   1.4315   1.4635   1.4678   1.5191   1.5271   1.5485   1.5507
  1.5683   1.6114   1.6687   1.8197   1.8589   1.9214   1.9278   1.9369
  1.9728   2.0284   2.0411   2.0461   2.0781   2.0896   2.1575   2.1743
  2.1908   2.2221   2.2602   2.2727   2.2942   2.2974   2.3287   2.3932
  2.4309   2.4772   2.5530   2.5719   2.6394   2.6496   2.6687   2.6896
  2.7340   2.8073   2.8410   2.8514   2.9616   2.9785   3.1007   3.2257
  3.3810   4.1705   4.2568   4.3098   4.3392   4.3784   4.4204   4.4943
  4.5373   4.7850
 --------------------------------------------------------------
 
          Ground-State Mulliken Net Atomic Charges

     Atom                 Charge (a.u.)
  ----------------------------------------
      1 C                    -0.064274
      2 C                    -0.415449
      3 C                    -0.143643
      4 C                    -0.888002
      5 C                     1.033874
      6 C                    -0.525196
      7 N                    -0.517429
      8 C                     0.086947
      9 C                    -0.256652
     10 H                     0.438222
     11 H                     0.214953
     12 H                     0.221461
     13 H                     0.200383
     14 H                     0.206223
     15 H                     0.198349
     16 H                     0.210234
  ----------------------------------------
  Sum of atomic charges =     0.000000

 -----------------------------------------------------------------
                    Cartesian Multipole Moments
 -----------------------------------------------------------------
    Charge (ESU x 10^10)
                 0.0000
    Dipole Moment (Debye)
         X      -1.5576      Y       1.6451      Z       0.0005
       Tot       2.2655
    Quadrupole Moments (Debye-Ang)
        XX     -44.8786     XY      -3.4019     YY     -44.1855
        XZ      -0.0006     YZ       0.0023     ZZ     -59.6068
    Octopole Moments (Debye-Ang^2)
       XXX     -16.1601    XXY       8.9600    XYY      -7.6749
       YYY      11.0186    XXZ      -0.0025    XYZ      -0.0044
       YYZ       0.0034    XZZ      -2.3018    YZZ       2.2171
       ZZZ      -0.0048
    Hexadecapole Moments (Debye-Ang^3)
      XXXX    -818.7051   XXXY     -22.3856   XXYY    -200.1679
      XYYY     -19.5471   YYYY    -374.8782   XXXZ       0.0157
      XXYZ       0.0071   XYYZ      -0.0038   YYYZ       0.0072
      XXZZ    -193.8133   XYZZ      -3.9253   YYZZ     -96.5891
      XZZZ       0.0135   YZZZ      -0.0031   ZZZZ     -74.2614
 -----------------------------------------------------------------
 Calculating analytic gradient of the CIS energy
 CIS relaxed dipole moment
            1
    1  -0.7548123
    2   0.4740085
    3   0.0005608
	Magnitude:	 0.891 au	 2.265 Debye
 CIS 3 State Energy is -363.4811749324
 Gradient of the state energy (including CIS Excitation Energy)
            1           2           3           4           5           6
    1   0.0042148   0.0066446  -0.0106613   0.0133593  -0.0075265   0.0067246
    2   0.0092321  -0.0177727   0.0084116  -0.0203580   0.0157771  -0.0080566
    3   0.0000087  -0.0000123   0.0000001   0.0000247  -0.0000180  -0.0000131
            7           8           9          10          11          12
    1  -0.0274744   0.0204203  -0.0026054  -0.0013564  -0.0006311  -0.0011761
    2  -0.0117325  -0.0135202   0.0357936   0.0017120  -0.0010729   0.0003388
    3  -0.0000124   0.0000325  -0.0000186   0.0000087  -0.0000014  -0.0000037
           13          14          15          16
    1   0.0008841  -0.0004828   0.0005177  -0.0008514
    2   0.0008588   0.0011305   0.0002619  -0.0010035
    3  -0.0000003   0.0000007   0.0000017   0.0000024
 Gradient time:  CPU 77.63 s  wall 19.52 s
 Geometry Optimization Parameters
   NAtoms,    NIC,     NZ,  NCons,   NDum,   NFix, NCnnct, MaxDiis
       16     116       0       0       0       0       0       0

 Cartesian Hessian Update
 Hessian updated using BFGS update


** GEOMETRY OPTIMIZATION IN DELOCALIZED INTERNAL COORDINATES **
   Searching for a Minimum

   Optimization Cycle:   3

                       Coordinates (Angstroms)
     ATOM                X               Y               Z
      1  C         2.1802040033   -0.6930965755   -0.0000777914
      2  C         2.1581819061    0.7219569555   -0.0000531171
      3  C         0.9239505223    1.4516472136    0.0000423898
      4  C        -0.2462343241    0.6733651318    0.0001240064
      5  C        -0.2532010241   -0.7669515886    0.0000751133
      6  C         0.9813672015   -1.4695998361   -0.0000495752
      7  N        -1.5774750353    1.0728791277    0.0000717675
      8  C        -1.6183785910   -1.1717260730    0.0001432536
      9  C        -2.4143863036   -0.0120843947   -0.0000347710
     10  H        -1.8861907895    2.0370093537    0.0005386105
     11  H        -1.9968242689   -2.1863969406    0.0000294518
     12  H        -3.4892761326    0.1042353138   -0.0002052123
     13  H         3.0959402421    1.2694477450   -0.0000779337
     14  H         0.8993939906    2.5373397642    0.0001072324
     15  H         3.1403431920   -1.2004392904   -0.0001033107
     16  H         1.0056803625   -2.5550334138   -0.0000041330
   Point Group: c1    Number of degrees of freedom:    42


   Energy is   -363.481174932

 Hessian updated using BFGS update

 42 Hessian modes will be used to form the next step
  Hessian Eigenvalues:
     0.018594    0.019738    0.020011    0.020794    0.021683    0.022200
     0.022636    0.023004    0.023236    0.023608    0.023851    0.023984
     0.024127    0.159508    0.160000    0.160000    0.160000    0.160000
     0.160001    0.162003    0.215585    0.222312    0.227203    0.245884
     0.260160    0.356713    0.357151    0.357602    0.357770    0.363141
     0.364167    0.366732    0.384217    0.416122    0.429420    0.442126
     0.449664    0.460580    0.471735    0.473909    0.476523    0.534607

 Minimum search - taking simple RFO step
 Searching for Lamda that Minimizes Along All modes
 Value Taken    Lamda =  -0.00498272
 Step Taken.  Stepsize is  0.113558

                             Maximum     Tolerance    Cnvgd?
         Gradient           0.020439      0.000300      NO
         Displacement       0.055829      0.001200      NO
         Energy change     -0.005021      0.000001      NO


 New Cartesian Coordinates Obtained by Inverse Iteration

 Displacement from previous Coordinates is:  0.141992
 ----------------------------------------------------------------
             Standard Nuclear Orientation (Angstroms)
    I     Atom           X                Y                Z
 ----------------------------------------------------------------
    1      C       2.1618583813    -0.6854657188    -0.0000560911
    2      C       2.1562847368     0.7384832364     0.0000037307
    3      C       0.9334324182     1.4568234703    -0.0000803376
    4      C      -0.2417785878     0.6838275016    -0.0000327945
    5      C      -0.2620359157    -0.7722895125     0.0000935623
    6      C       0.9648155043    -1.4594147819     0.0000493072
    7      N      -1.5511660038     1.0686497238     0.0001278222
    8      C      -1.6334410814    -1.1779283251    -0.0000552345
    9      C      -2.4048747719    -0.0373995685     0.0001060745
   10      H      -1.8588442117     2.0305828282     0.0004888920
   11      H      -2.0124349020    -2.1898085593    -0.0002303873
   12      H      -3.4772592651     0.0839513484     0.0000914528
   13      H       3.0969681749     1.2763327010     0.0000235032
   14      H       0.9122710456     2.5405403543     0.0000024394
   15      H       3.1168590025    -1.2015078966    -0.0000855106
   16      H       1.0024404270    -2.5428243086     0.0000795525
 ----------------------------------------------------------------
 Molecular Point Group                 C1    NOp =  1
 Largest Abelian Subgroup              C1    NOp =  1
 Nuclear Repulsion Energy =         397.32074172 hartrees
 There are       31 alpha and       31 beta electrons
 Applying Cartesian multipole field
    Component          Value
    ---------          -----
     (2,0,0)        1.00000E-11
     (0,2,0)        2.00000E-11
     (0,0,2)       -3.00000E-11
 Nucleus-field energy     =     0.0000000119 hartrees
 Requested basis set is 6-31+G(d)
 There are 59 shells and 185 basis functions
 A cutoff of  1.0D-12 yielded   1656 shell pairs
 There are     17099 function pairs
 Smallest overlap matrix eigenvalue = 1.44E-06
 Guess MOs from SCF MO coefficient file

 -----------------------------------------------------------------------
  General SCF calculation program by
  Eric Jon Sundstrom, Paul Horn, Yuezhi Mao, Dmitri Zuev, Alec White,
  David Stuck, Shaama M.S., Shane Yost, Joonho Lee, David Small,
  Daniel Levine, Susi Lehtola, Hugh Burton, Evgeny Epifanovsky,
  Bang C. Huynh
 -----------------------------------------------------------------------
 Exchange:     0.5400 Hartree-Fock + 1.0000 M06-2X
 Correlation:  1.0000 M06-2X
 Using SG-3 standard quadrature grid
 using 4 threads for integral computing
 -------------------------------------------------------
 OpenMP Integral computing Module                
 Release: version 1.0, May 2013, Q-Chem Inc. Pittsburgh 
 -------------------------------------------------------
 A restricted SCF calculation will be
 performed using DIIS
 SCF converges when DIIS error is below 1.0e-08
 ---------------------------------------
  Cycle       Energy         DIIS error
 ---------------------------------------
    1    -363.6643511735      5.46e-04  
    2    -363.6660546675      1.21e-04  
    3    -363.6661106459      8.96e-05  
    4    -363.6661444714      2.35e-05  
    5    -363.6661475667      8.45e-06  
    6    -363.6661480741      4.40e-06  
    7    -363.6661482021      1.29e-06  
    8    -363.6661482147      5.06e-07  
    9    -363.6661482161      1.94e-07  
   10    -363.6661482163      4.65e-08  
   11    -363.6661482163      2.25e-08  
   12    -363.6661482163      5.93e-09  Convergence criterion met
 ---------------------------------------
 SCF time:   CPU 238.01s  wall 60.00s 
 SCF   energy in the final basis set =     -363.6661482163
 Total energy in the final basis set =     -363.6661482163
 
 Direct TDDFT/TDA calculation will be performed
 Exchange:     0.5400 Hartree-Fock + 1.0000 M06-2X
 Correlation:  1.0000 M06-2X
 Using SG-3 standard quadrature grid
 Singlet excitation energies requested
 CIS energy converged when residual is below 10e- 6
 ---------------------------------------------------
 Iter    Rts Conv    Rts Left    Ttl Dev     Max Dev
 ---------------------------------------------------
   1         0           3      0.003628    0.001722
   2         0           3      0.001013    0.000491
   3         0           3      0.000511    0.000269
   4         0           3      0.000208    0.000095
   5         0           3      0.000072    0.000031
   6         0           3      0.000030    0.000011
   7         0           3      0.000011    0.000004
   8         0           3      0.000004    0.000001
   9         3           0      0.000002    0.000001    Roots Converged
 ---------------------------------------------------
 
 ---------------------------------------------------
         TDDFT/TDA Excitation Energies              
 ---------------------------------------------------

 Excited state   1: excitation energy (eV) =    4.9579
 Total energy for state  1:                  -363.48394752 au
    Multiplicity: Singlet
    Trans. Mom.:  0.3637 X   0.4765 Y  -0.0001 Z
    Strength   :     0.0436506628
    D(   30) --> V(    1) amplitude =  0.7695
    D(   31) --> V(    1) amplitude = -0.3167
    D(   31) --> V(    7) amplitude =  0.4880

 Excited state   2: excitation energy (eV) =    5.1669
 Total energy for state  2:                  -363.47626676 au
    Multiplicity: Singlet
    Trans. Mom.:  0.0037 X  -0.0035 Y  -0.1219 Z
    Strength   :     0.0018838551
    D(   31) --> V(    2) amplitude =  0.9756

 Excited state   3: excitation energy (eV) =    5.1833
 Total energy for state  3:                  -363.47566473 au
    Multiplicity: Singlet
    Trans. Mom.:  0.7584 X  -0.6404 Y   0.0006 Z
    Strength   :     0.1251263102
    D(   30) --> V(    1) amplitude =  0.2499
    D(   30) --> V(    7) amplitude = -0.2789
    D(   31) --> V(    1) amplitude =  0.8631
    D(   31) --> V(    7) amplitude =  0.2492
 
 ---------------------------------------------------
 Calculating Relaxed Density
 ---------------------------------------------------
 Iter    Rts Conv    Rts Left    Ttl Dev     Max Dev
 ---------------------------------------------------
   1         0           3      0.001147    0.000639
   2         0           3      0.000461    0.000267
   3         0           3      0.000125    0.000057
   4         0           3      0.000043    0.000025
   5         0           3      0.000013    0.000007
   6         1           2      0.000003    0.000002
   7         3           0      0.000000    0.000000    Roots Converged
 ---------------------------------------------------
  SETman timing summary (seconds)
  CPU time              1153.56s
  System time              0.00s
  Wall time              290.05s
 
 --------------------------------------------------------------
 
                    Orbital Energies (a.u.)
 --------------------------------------------------------------
 
 Alpha MOs
 -- Occupied --
-14.8125 -10.5908 -10.5889 -10.5584 -10.5543 -10.5539 -10.5524 -10.5479
-10.5426  -1.0927  -0.9327  -0.8824  -0.8238  -0.8109  -0.7093  -0.6771
 -0.6610  -0.6137  -0.5611  -0.5398  -0.5023  -0.4972  -0.4965  -0.4744
 -0.4585  -0.4137  -0.3972  -0.3950  -0.3412  -0.2689  -0.2556
 -- Virtual --
  0.0067   0.0072   0.0260   0.0302   0.0430   0.0451   0.0475   0.0663
  0.0670   0.0697   0.0740   0.0766   0.0979   0.1044   0.1082   0.1091
  0.1266   0.1376   0.1475   0.1512   0.1611   0.1639   0.1735   0.1780
  0.1854   0.1957   0.1988   0.2028   0.2111   0.2144   0.2190   0.2283
  0.2297   0.2403   0.2455   0.2516   0.2525   0.2596   0.2698   0.2762
  0.2826   0.2892   0.3085   0.3125   0.3265   0.3369   0.3401   0.3533
  0.3702   0.3967   0.4060   0.4305   0.4693   0.4903   0.5515   0.6115
  0.6460   0.7137   0.7192   0.7454   0.7497   0.7672   0.7763   0.7772
  0.7835   0.7990   0.7994   0.8219   0.8353   0.8381   0.8574   0.8970
  0.9343   0.9541   0.9633   0.9883   0.9992   1.0040   1.0162   1.0338
  1.0398   1.0762   1.0965   1.1133   1.1284   1.1499   1.1521   1.2030
  1.2130   1.2365   1.2576   1.2776   1.2948   1.3477   1.3777   1.3942
  1.3986   1.4343   1.4655   1.4678   1.5173   1.5282   1.5510   1.5536
  1.5625   1.6167   1.6742   1.8267   1.8670   1.9196   1.9364   1.9368
  1.9759   2.0314   2.0449   2.0489   2.0895   2.0911   2.1632   2.1715
  2.1866   2.2292   2.2667   2.2728   2.2979   2.2990   2.3325   2.3961
  2.4436   2.4750   2.5658   2.5774   2.6442   2.6549   2.6698   2.6993
  2.7342   2.8128   2.8454   2.8572   2.9749   2.9801   3.1156   3.2305
  3.3886   4.1689   4.2611   4.3141   4.3463   4.3838   4.4199   4.4974
  4.5394   4.7867
 --------------------------------------------------------------
 
          Ground-State Mulliken Net Atomic Charges

     Atom                 Charge (a.u.)
  ----------------------------------------
      1 C                    -0.050235
      2 C                    -0.429945
      3 C                    -0.076421
      4 C                    -0.845516
      5 C                     0.959167
      6 C                    -0.608171
      7 N                    -0.532933
      8 C                     0.166899
      9 C                    -0.269477
     10 H                     0.436719
     11 H                     0.218269
     12 H                     0.220535
     13 H                     0.201726
     14 H                     0.205097
     15 H                     0.195463
     16 H                     0.208824
  ----------------------------------------
  Sum of atomic charges =     0.000000

 -----------------------------------------------------------------
                    Cartesian Multipole Moments
 -----------------------------------------------------------------
    Charge (ESU x 10^10)
                -0.0000
    Dipole Moment (Debye)
         X      -1.6234      Y       1.5382      Z       0.0005
       Tot       2.2364
    Quadrupole Moments (Debye-Ang)
        XX     -44.9966     XY      -2.9018     YY     -44.1512
        XZ      -0.0010     YZ       0.0023     ZZ     -59.4759
    Octopole Moments (Debye-Ang^2)
       XXX     -16.1487    XXY       8.3274    XYY      -7.7610
       YYY      10.3290    XXZ       0.0011    XYZ      -0.0040
       YYZ       0.0021    XZZ      -2.4298    YZZ       2.0369
       ZZZ      -0.0033
    Hexadecapole Moments (Debye-Ang^3)
      XXXX    -815.0512   XXXY     -22.1569   XXYY    -198.8779
      XYYY     -21.9700   YYYY    -375.9484   XXXZ       0.0044
      XXYZ       0.0102   XYYZ      -0.0006   YYYZ       0.0096
      XXZZ    -192.1773   XYZZ      -5.0699   YYZZ     -96.3189
      XZZZ       0.0111   YZZZ      -0.0007   ZZZZ     -73.7980
 -----------------------------------------------------------------
 Calculating analytic gradient of the CIS energy
 CIS relaxed dipole moment
            1
    1  -1.6769539
    2   0.5970471
    3   0.0059673
	Magnitude:	 1.780 au	 4.525 Debye
 CIS 3 State Energy is -363.4756647343
 Gradient of the state energy (including CIS Excitation Energy)
            1           2           3           4           5           6
    1  -0.0023123  -0.0038673   0.0179408  -0.0205373   0.0073365  -0.0140442
    2  -0.0207038   0.0384163  -0.0065876   0.0365656  -0.0239847   0.0056763
    3  -0.0000261   0.0000210   0.0000299  -0.0000680   0.0000362   0.0000545
            7           8           9          10          11          12
    1   0.0477640  -0.0372003   0.0014986   0.0028403   0.0002105   0.0006256
    2   0.0200150   0.0144845  -0.0599480  -0.0013674   0.0006733  -0.0019094
    3  -0.0000528  -0.0000340   0.0000445   0.0000377  -0.0000040  -0.0000025
           13          14          15          16
    1  -0.0007615   0.0010158  -0.0000350  -0.0004741
    2  -0.0003524  -0.0007428  -0.0007046   0.0004696
    3   0.0000003  -0.0000170  -0.0000059  -0.0000137
 Gradient time:  CPU 77.58 s  wall 19.51 s
 Geometry Optimization Parameters
   NAtoms,    NIC,     NZ,  NCons,   NDum,   NFix, NCnnct, MaxDiis
       16     116       0       0       0       0       0       0

 Cartesian Hessian Update
 Hessian updated using BFGS update


** GEOMETRY OPTIMIZATION IN DELOCALIZED INTERNAL COORDINATES **
   Searching for a Minimum

   Optimization Cycle:   4

                       Coordinates (Angstroms)
     ATOM                X               Y               Z
      1  C         2.1618583813   -0.6854657188   -0.0000560911
      2  C         2.1562847368    0.7384832364    0.0000037307
      3  C         0.9334324182    1.4568234703   -0.0000803376
      4  C        -0.2417785878    0.6838275016   -0.0000327945
      5  C        -0.2620359157   -0.7722895125    0.0000935623
      6  C         0.9648155043   -1.4594147819    0.0000493072
      7  N        -1.5511660038    1.0686497238    0.0001278222
      8  C        -1.6334410814   -1.1779283251   -0.0000552345
      9  C        -2.4048747719   -0.0373995685    0.0001060745
     10  H        -1.8588442117    2.0305828282    0.0004888920
     11  H        -2.0124349020   -2.1898085593   -0.0002303873
     12  H        -3.4772592651    0.0839513484    0.0000914528
     13  H         3.0969681749    1.2763327010    0.0000235032
     14  H         0.9122710456    2.5405403543    0.0000024394
     15  H         3.1168590025   -1.2015078966   -0.0000855106
     16  H         1.0024404270   -2.5428243086    0.0000795525
   Point Group: c1    Number of degrees of freedom:    42


   Energy is   -363.475664734

 Hessian updated using BFGS update

 41 Hessian modes will be used to form the next step
  Hessian Eigenvalues:
     0.018593    0.019738    0.020011    0.020794    0.021683    0.022200
     0.022636    0.023004    0.023236    0.023608    0.023851    0.023984
     0.024127    0.159721    0.159986    0.160000    0.160000    0.160150
     0.161889    0.217762    0.222680    0.229997    0.246173    0.262398
     0.356879    0.357150    0.357697    0.357931    0.363989    0.364458
     0.372722    0.383742    0.426422    0.431474    0.449204    0.455072
     0.469007    0.471872    0.475948    0.521110    1.192220

 Minimum search - taking simple RFO step
 Searching for Lamda that Minimizes Along All modes
 Value Taken    Lamda =  -0.00571951
 Step Taken.  Stepsize is  0.071228

                             Maximum     Tolerance    Cnvgd?
         Gradient           0.043517      0.000300      NO
         Displacement       0.042725      0.001200      NO
         Energy change      0.005510      0.000001      NO


 New Cartesian Coordinates Obtained by Inverse Iteration

 Displacement from previous Coordinates is:  0.097821
 ----------------------------------------------------------------
             Standard Nuclear Orientation (Angstroms)
    I     Atom           X                Y                Z
 ----------------------------------------------------------------
    1      C       2.1703209429    -0.6894904111    -0.0000917958
    2      C       2.1516380001     0.7246691163    -0.0000335148
    3      C       0.9249333418     1.4482252971     0.0000015454
    4      C      -0.2457580735     0.6759177891     0.0001232931
    5      C      -0.2544949093    -0.7692431401     0.0000955846
    6      C       0.9760627685    -1.4628708964    -0.0000689966
    7      N      -1.5665270594     1.0725363690     0.0001482368
    8      C      -1.6213547806    -1.1709417778     0.0000933268
    9      C      -2.4075835046    -0.0208628296     0.0000559826
   10      H      -1.8754939702     2.0348765955     0.0002888073
   11      H      -1.9996869047    -2.1838994729    -0.0000368825
   12      H      -3.4805944413     0.0989691563    -0.0000658559
   13      H       3.0898767183     1.2682647880    -0.0000188229
   14      H       0.9026344404     2.5324918137     0.0001574986
   15      H       3.1283179406    -1.1994146029    -0.0001087016
   16      H       1.0108044424    -2.5466753016    -0.0000137241
 ----------------------------------------------------------------
 Molecular Point Group                 C1    NOp =  1
 Largest Abelian Subgroup              C1    NOp =  1
 Nuclear Repulsion Energy =         397.44976899 hartrees
 There are       31 alpha and       31 beta electrons
 Applying Cartesian multipole field
    Component          Value
    ---------          -----
     (2,0,0)        1.00000E-11
     (0,2,0)        2.00000E-11
     (0,0,2)       -3.00000E-11
 Nucleus-field energy     =     0.0000000119 hartrees
 Requested basis set is 6-31+G(d)
 There are 59 shells and 185 basis functions
 A cutoff of  1.0D-12 yielded   1656 shell pairs
 There are     17099 function pairs
 Smallest overlap matrix eigenvalue = 1.39E-06
 Guess MOs from SCF MO coefficient file

 -----------------------------------------------------------------------
  General SCF calculation program by
  Eric Jon Sundstrom, Paul Horn, Yuezhi Mao, Dmitri Zuev, Alec White,
  David Stuck, Shaama M.S., Shane Yost, Joonho Lee, David Small,
  Daniel Levine, Susi Lehtola, Hugh Burton, Evgeny Epifanovsky,
  Bang C. Huynh
 -----------------------------------------------------------------------
 Exchange:     0.5400 Hartree-Fock + 1.0000 M06-2X
 Correlation:  1.0000 M06-2X
 Using SG-3 standard quadrature grid
 using 4 threads for integral computing
 -------------------------------------------------------
 OpenMP Integral computing Module                
 Release: version 1.0, May 2013, Q-Chem Inc. Pittsburgh 
 -------------------------------------------------------
 A restricted SCF calculation will be
 performed using DIIS
 SCF converges when DIIS error is below 1.0e-08
 ---------------------------------------
  Cycle       Energy         DIIS error
 ---------------------------------------
    1    -363.6659851536      3.57e-04  
    2    -363.6666776664      7.75e-05  
    3    -363.6666979801      6.01e-05  
    4    -363.6667134908      1.51e-05  
    5    -363.6667147744      5.36e-06  
    6    -363.6667149686      3.25e-06  
    7    -363.6667150335      7.39e-07  
    8    -363.6667150373      3.45e-07  
    9    -363.6667150379      7.18e-08  
   10    -363.6667150379      3.64e-08  
   11    -363.6667150379      6.40e-09  Convergence criterion met
 ---------------------------------------
 SCF time:   CPU 219.48s  wall 56.00s 
 SCF   energy in the final basis set =     -363.6667150379
 Total energy in the final basis set =     -363.6667150379
 
 Direct TDDFT/TDA calculation will be performed
 Exchange:     0.5400 Hartree-Fock + 1.0000 M06-2X
 Correlation:  1.0000 M06-2X
 Using SG-3 standard quadrature grid
 Singlet excitation energies requested
 CIS energy converged when residual is below 10e- 6
 ---------------------------------------------------
 Iter    Rts Conv    Rts Left    Ttl Dev     Max Dev
 ---------------------------------------------------
   1         0           3      0.002264    0.001743
   2         0           3      0.000543    0.000403
   3         0           3      0.000277    0.000161
   4         0           3      0.000254    0.000168
   5         0           3      0.000163    0.000127
   6         0           3      0.000096    0.000075
   7         1           2      0.000953    0.000918
   8         0           3      0.000522    0.000273
   9         1           2      0.000181    0.000134
  10         1           2      0.000063    0.000047
  11         1           2      0.000016    0.000012
  12         1           2      0.000006    0.000004
  13         2           1      0.000002    0.000001
  14         3           0      0.000001    0.000000    Roots Converged
 ---------------------------------------------------
 
 ---------------------------------------------------
         TDDFT/TDA Excitation Energies              
 ---------------------------------------------------

 Excited state   1: excitation energy (eV) =    5.0056
 Total energy for state  1:                  -363.48276250 au
    Multiplicity: Singlet
    Trans. Mom.:  0.2311 X   0.4300 Y   0.0000 Z
    Strength   :     0.0292240562
    D(   30) --> V(    1) amplitude =  0.7767
    D(   31) --> V(    1) amplitude =  0.2305
    D(   31) --> V(    7) amplitude = -0.5282

 Excited state   2: excitation energy (eV) =    5.0557
 Total energy for state  2:                  -363.48092269 au
    Multiplicity: Singlet
    Trans. Mom.: -0.0032 X   0.0026 Y  -0.1333 Z
    Strength   :     0.0022040240
    D(   31) --> V(    2) amplitude =  0.9792

 Excited state   3: excitation energy (eV) =    5.0662
 Total energy for state  3:                  -363.48053633 au
    Multiplicity: Singlet
    Trans. Mom.: -0.8526 X   0.6825 Y   0.0005 Z
    Strength   :     0.1480401123
    D(   30) --> V(    7) amplitude =  0.2586
    D(   31) --> V(    1) amplitude =  0.8985
    D(   31) --> V(    7) amplitude =  0.2134
 
 ---------------------------------------------------
 Calculating Relaxed Density
 ---------------------------------------------------
 Iter    Rts Conv    Rts Left    Ttl Dev     Max Dev
 ---------------------------------------------------
   1         0           3      0.001194    0.000661
   2         0           3      0.000473    0.000266
   3         0           3      0.000124    0.000052
   4         0           3      0.000042    0.000022
   5         0           3      0.000012    0.000006
   6         1           2      0.000002    0.000001
   7         3           0      0.000000    0.000000    Roots Converged
 ---------------------------------------------------
  SETman timing summary (seconds)
  CPU time              1347.72s
  System time              0.00s
  Wall time              339.10s
 
 --------------------------------------------------------------
 
                    Orbital Energies (a.u.)
 --------------------------------------------------------------
 
 Alpha MOs
 -- Occupied --
-14.8134 -10.5911 -10.5884 -10.5592 -10.5544 -10.5535 -10.5522 -10.5480
-10.5416  -1.0936  -0.9351  -0.8796  -0.8279  -0.8076  -0.7101  -0.6780
 -0.6601  -0.6151  -0.5591  -0.5412  -0.5028  -0.4985  -0.4968  -0.4724
 -0.4580  -0.4135  -0.3986  -0.3970  -0.3386  -0.2733  -0.2518
 -- Virtual --
  0.0056   0.0068   0.0260   0.0304   0.0429   0.0454   0.0481   0.0666
  0.0669   0.0696   0.0741   0.0766   0.0981   0.1038   0.1085   0.1091
  0.1263   0.1378   0.1471   0.1510   0.1610   0.1634   0.1732   0.1782
  0.1861   0.1962   0.1980   0.2032   0.2110   0.2144   0.2209   0.2289
  0.2297   0.2397   0.2467   0.2512   0.2518   0.2593   0.2692   0.2762
  0.2851   0.2900   0.3065   0.3137   0.3263   0.3370   0.3412   0.3544
  0.3716   0.3947   0.4053   0.4291   0.4687   0.4888   0.5521   0.6140
  0.6486   0.7131   0.7191   0.7451   0.7534   0.7678   0.7748   0.7779
  0.7826   0.8003   0.8010   0.8215   0.8338   0.8380   0.8556   0.8976
  0.9338   0.9521   0.9616   0.9897   0.9995   1.0040   1.0160   1.0345
  1.0407   1.0754   1.0958   1.1113   1.1276   1.1494   1.1539   1.2055
  1.2120   1.2372   1.2569   1.2779   1.2944   1.3495   1.3761   1.3928
  1.3989   1.4349   1.4645   1.4695   1.5187   1.5274   1.5505   1.5522
  1.5688   1.6160   1.6725   1.8224   1.8642   1.9243   1.9354   1.9381
  1.9759   2.0325   2.0447   2.0483   2.0852   2.0942   2.1673   2.1756
  2.1919   2.2271   2.2673   2.2765   2.2958   2.3004   2.3332   2.3974
  2.4383   2.4784   2.5620   2.5773   2.6444   2.6577   2.6707   2.6970
  2.7370   2.8129   2.8478   2.8564   2.9698   2.9817   3.1105   3.2328
  3.3934   4.1720   4.2628   4.3126   4.3426   4.3818   4.4211   4.4972
  4.5390   4.7897
 --------------------------------------------------------------
 
          Ground-State Mulliken Net Atomic Charges

     Atom                 Charge (a.u.)
  ----------------------------------------
      1 C                    -0.054843
      2 C                    -0.425913
      3 C                    -0.117575
      4 C                    -0.877696
      5 C                     1.016339
      6 C                    -0.556184
      7 N                    -0.524045
      8 C                     0.115240
      9 C                    -0.262253
     10 H                     0.437829
     11 H                     0.215816
     12 H                     0.220804
     13 H                     0.200358
     14 H                     0.205360
     15 H                     0.197215
     16 H                     0.209548
  ----------------------------------------
  Sum of atomic charges =     0.000000

 -----------------------------------------------------------------
                    Cartesian Multipole Moments
 -----------------------------------------------------------------
    Charge (ESU x 10^10)
                -0.0000
    Dipole Moment (Debye)
         X      -1.5742      Y       1.6072      Z       0.0002
       Tot       2.2497
    Quadrupole Moments (Debye-Ang)
        XX     -44.9444     XY      -3.2648     YY     -44.1962
        XZ       0.0003     YZ       0.0014     ZZ     -59.4833
    Octopole Moments (Debye-Ang^2)
       XXX     -16.0299    XXY       8.7145    XYY      -7.6862
       YYY      10.8159    XXZ      -0.0029    XYZ      -0.0018
       YYZ       0.0007    XZZ      -2.2827    YZZ       2.1524
       ZZZ      -0.0060
    Hexadecapole Moments (Debye-Ang^3)
      XXXX    -815.5218   XXXY     -22.1744   XXYY    -199.0245
      XYYY     -20.2201   YYYY    -374.2000   XXXZ       0.0208
      XXYZ       0.0035   XYYZ       0.0041   YYYZ       0.0024
      XXZZ    -192.4694   XYZZ      -4.1418   YYZZ     -96.0795
      XZZZ       0.0187   YZZZ      -0.0054   ZZZZ     -73.8644
 -----------------------------------------------------------------
 Calculating analytic gradient of the CIS energy
 CIS relaxed dipole moment
            1
    1  -1.7451963
    2   0.6140420
    3  -0.0038781
	Magnitude:	 1.850 au	 4.702 Debye
 CIS 3 State Energy is -363.4805363327
 Gradient of the state energy (including CIS Excitation Energy)
            1           2           3           4           5           6
    1  -0.0005476  -0.0028299   0.0118756  -0.0152708   0.0069382  -0.0097304
    2  -0.0170091   0.0286643  -0.0075050   0.0293671  -0.0225234   0.0059889
    3   0.0000072  -0.0000029  -0.0000381   0.0000310  -0.0000083  -0.0000353
            7           8           9          10          11          12
    1   0.0335916  -0.0258790  -0.0003755   0.0014788   0.0005649   0.0004853
    2   0.0192746   0.0103433  -0.0442933  -0.0009047   0.0001652  -0.0006455
    3   0.0000414   0.0000302  -0.0000339  -0.0000192  -0.0000016  -0.0000056
           13          14          15          16
    1  -0.0004744   0.0003111  -0.0000813  -0.0000566
    2  -0.0004457  -0.0001790  -0.0004357   0.0001381
    3  -0.0000002   0.0000191   0.0000053   0.0000109
 Gradient time:  CPU 78.34 s  wall 19.72 s
 Geometry Optimization Parameters
   NAtoms,    NIC,     NZ,  NCons,   NDum,   NFix, NCnnct, MaxDiis
       16     116       0       0       0       0       0       0

 Cartesian Hessian Update
 Hessian updated using BFGS update


** GEOMETRY OPTIMIZATION IN DELOCALIZED INTERNAL COORDINATES **
   Searching for a Minimum

   Optimization Cycle:   5

                       Coordinates (Angstroms)
     ATOM                X               Y               Z
      1  C         2.1703209429   -0.6894904111   -0.0000917958
      2  C         2.1516380001    0.7246691163   -0.0000335148
      3  C         0.9249333418    1.4482252971    0.0000015454
      4  C        -0.2457580735    0.6759177891    0.0001232931
      5  C        -0.2544949093   -0.7692431401    0.0000955846
      6  C         0.9760627685   -1.4628708964   -0.0000689966
      7  N        -1.5665270594    1.0725363690    0.0001482368
      8  C        -1.6213547806   -1.1709417778    0.0000933268
      9  C        -2.4075835046   -0.0208628296    0.0000559826
     10  H        -1.8754939702    2.0348765955    0.0002888073
     11  H        -1.9996869047   -2.1838994729   -0.0000368825
     12  H        -3.4805944413    0.0989691563   -0.0000658559
     13  H         3.0898767183    1.2682647880   -0.0000188229
     14  H         0.9026344404    2.5324918137    0.0001574986
     15  H         3.1283179406   -1.1994146029   -0.0001087016
     16  H         1.0108044424   -2.5466753016   -0.0000137241
   Point Group: c1    Number of degrees of freedom:    42


   Energy is   -363.480536333

 Hessian updated using BFGS update

 42 Hessian modes will be used to form the next step
  Hessian Eigenvalues:
     0.018594    0.019738    0.020011    0.020794    0.021684    0.022200
     0.022636    0.023004    0.023236    0.023609    0.023851    0.023984
     0.024128    0.157847    0.159842    0.159993    0.160000    0.160000
     0.160168    0.161222    0.208461    0.220545    0.227046    0.245705
     0.266273    0.333213    0.357037    0.357166    0.357725    0.358260
     0.364005    0.364618    0.381887    0.398931    0.427256    0.433236
     0.449209    0.459119    0.469440    0.471887    0.488859    0.542598

 Minimum search - taking simple RFO step
[...]
 Total energy in the final basis set =     -363.6665767284
 
 Direct TDDFT/TDA calculation will be performed
 Exchange:     0.5400 Hartree-Fock + 1.0000 M06-2X
 Correlation:  1.0000 M06-2X
 Using SG-3 standard quadrature grid
 Singlet excitation energies requested
 CIS energy converged when residual is below 10e- 6
 ---------------------------------------------------
 Iter    Rts Conv    Rts Left    Ttl Dev     Max Dev
 ---------------------------------------------------
   1         0           3      0.002264    0.001743
   2         0           3      0.000538    0.000399
   3         0           3      0.000270    0.000160
   4         0           3      0.000224    0.000140
   5         0           3      0.000141    0.000107
   6         0           3      0.000087    0.000070
   7         0           3      0.000079    0.000058
   8         0           3      0.000576    0.000487
   9         0           3      0.000266    0.000166
  10         0           3      0.000100    0.000073
  11         1           2      0.000024    0.000017
  12         1           2      0.000007    0.000005
  13         2           1      0.000003    0.000002
  14         3           0      0.000001    0.000000    Roots Converged
 ---------------------------------------------------
 
 ---------------------------------------------------
         TDDFT/TDA Excitation Energies              
 ---------------------------------------------------

 Excited state   1: excitation energy (eV) =    5.0101
 Total energy for state  1:                  -363.48245923 au
    Multiplicity: Singlet
    Trans. Mom.: -0.1698 X  -0.4594 Y  -0.0023 Z
    Strength   :     0.0294414606
    D(   30) --> V(    1) amplitude = -0.7655
    D(   31) --> V(    1) amplitude =  0.2727
    D(   31) --> V(    7) amplitude =  0.5211

 Excited state   2: excitation energy (eV) =    5.0383
 Total energy for state  2:                  -363.48142301 au
    Multiplicity: Singlet
    Trans. Mom.: -0.0063 X  -0.0042 Y   0.1336 Z
    Strength   :     0.0022095026
    D(   31) --> V(    2) amplitude =  0.9794

 Excited state   3: excitation energy (eV) =    5.0474
 Total energy for state  3:                  -363.48108895 au
    Multiplicity: Singlet
    Trans. Mom.:  0.8681 X  -0.6676 Y   0.0000 Z
    Strength   :     0.1483031595
    D(   30) --> V(    7) amplitude =  0.2504
    D(   31) --> V(    1) amplitude =  0.8880
    D(   31) --> V(    7) amplitude = -0.2389
 
 ---------------------------------------------------
 Calculating Relaxed Density
 ---------------------------------------------------
 Iter    Rts Conv    Rts Left    Ttl Dev     Max Dev
 ---------------------------------------------------
   1         0           3      0.001204    0.000662
   2         0           3      0.000475    0.000264
   3         0           3      0.000125    0.000052
   4         0           3      0.000042    0.000022
   5         0           3      0.000012    0.000006
   6         1           2      0.000002    0.000001
   7         3           0      0.000000    0.000000    Roots Converged
 ---------------------------------------------------
  SETman timing summary (seconds)
  CPU time              1334.63s
  System time              0.00s
  Wall time              335.62s
 
 --------------------------------------------------------------
 
                    Orbital Energies (a.u.)
 --------------------------------------------------------------
 
 Alpha MOs
 -- Occupied --
-14.8135 -10.5912 -10.5884 -10.5593 -10.5545 -10.5535 -10.5522 -10.5481
-10.5415  -1.0939  -0.9353  -0.8792  -0.8285  -0.8072  -0.7103  -0.6780
 -0.6600  -0.6152  -0.5590  -0.5415  -0.5027  -0.4985  -0.4970  -0.4720
 -0.4582  -0.4135  -0.3987  -0.3973  -0.3382  -0.2739  -0.2512
 -- Virtual --
  0.0053   0.0067   0.0260   0.0305   0.0428   0.0454   0.0482   0.0666
  0.0669   0.0696   0.0741   0.0766   0.0981   0.1038   0.1085   0.1091
  0.1263   0.1379   0.1471   0.1510   0.1609   0.1634   0.1732   0.1783
  0.1861   0.1963   0.1978   0.2033   0.2109   0.2143   0.2211   0.2290
  0.2297   0.2395   0.2468   0.2512   0.2517   0.2593   0.2691   0.2763
  0.2853   0.2901   0.3061   0.3138   0.3263   0.3369   0.3413   0.3546
  0.3718   0.3945   0.4052   0.4288   0.4685   0.4889   0.5523   0.6142
  0.6489   0.7129   0.7190   0.7450   0.7540   0.7679   0.7746   0.7776
  0.7825   0.8004   0.8013   0.8215   0.8338   0.8380   0.8552   0.8977
  0.9337   0.9519   0.9613   0.9898   0.9995   1.0040   1.0160   1.0345
  1.0407   1.0752   1.0956   1.1110   1.1276   1.1492   1.1542   1.2055
  1.2119   1.2374   1.2568   1.2779   1.2942   1.3497   1.3758   1.3926
  1.3991   1.4349   1.4641   1.4697   1.5194   1.5272   1.5504   1.5521
  1.5695   1.6158   1.6718   1.8220   1.8638   1.9244   1.9352   1.9383
  1.9760   2.0329   2.0443   2.0477   2.0842   2.0943   2.1672   2.1770
  2.1921   2.2276   2.2666   2.2776   2.2965   2.3006   2.3331   2.3973
  2.4376   2.4788   2.5614   2.5775   2.6443   2.6580   2.6708   2.6962
  2.7375   2.8127   2.8478   2.8568   2.9694   2.9815   3.1097   3.2335
  3.3936   4.1725   4.2629   4.3120   4.3423   4.3816   4.4214   4.4972
  4.5390   4.7901
 --------------------------------------------------------------
 
          Ground-State Mulliken Net Atomic Charges

     Atom                 Charge (a.u.)
  ----------------------------------------
      1 C                    -0.054775
      2 C                    -0.425114
      3 C                    -0.122475
      4 C                    -0.881188
      5 C                     1.023851
      6 C                    -0.550949
      7 N                    -0.522748
      8 C                     0.106334
      9 C                    -0.259935
     10 H                     0.437863
     11 H                     0.215371
     12 H                     0.221050
     13 H                     0.200252
     14 H                     0.205362
     15 H                     0.197461
     16 H                     0.209639
  ----------------------------------------
  Sum of atomic charges =     0.000000

 -----------------------------------------------------------------
                    Cartesian Multipole Moments
 -----------------------------------------------------------------
    Charge (ESU x 10^10)
                -0.0000
    Dipole Moment (Debye)
         X      -1.5691      Y       1.6188      Z       0.0017
       Tot       2.2545
    Quadrupole Moments (Debye-Ang)
        XX     -44.9149     XY      -3.3182     YY     -44.2205
        XZ      -0.0011     YZ       0.0050     ZZ     -59.4859
    Octopole Moments (Debye-Ang^2)
       XXX     -16.0602    XXY       8.7861    XYY      -7.6432
       YYY      10.8925    XXZ      -0.0135    XYZ      -0.0162
       YYZ       0.0255    XZZ      -2.2647    YZZ       2.1757
       ZZZ       0.0036
    Hexadecapole Moments (Debye-Ang^3)
      XXXX    -815.7718   XXXY     -22.2496   XXYY    -199.1139
      XYYY     -20.0354   YYYY    -373.9254   XXXZ       0.0817
      XXYZ       0.0180   XYYZ      -0.0455   YYYZ      -0.0053
      XXZZ    -192.6104   XYZZ      -4.0430   YYZZ     -96.0206
      XZZZ       0.0180   YZZZ      -0.0124   ZZZZ     -73.8809
 -----------------------------------------------------------------
 Calculating analytic gradient of the CIS energy
 CIS relaxed dipole moment
            1
    1  -1.7361494
    2   0.6287914
    3   0.0041436
	Magnitude:	 1.847 au	 4.693 Debye
 CIS 3 State Energy is -363.4810889504
 Gradient of the state energy (including CIS Excitation Energy)
            1           2           3           4           5           6
    1  -0.0001111  -0.0012914   0.0097688  -0.0141493   0.0075506  -0.0096646
    2  -0.0142433   0.0252332  -0.0078075   0.0281945  -0.0210584   0.0061683
    3   0.0000406  -0.0000322   0.0000761   0.0000621  -0.0002536  -0.0000082
            7           8           9          10          11          12
    1   0.0325680  -0.0248571  -0.0019382   0.0012211   0.0004982   0.0004148
    2   0.0169429   0.0104470  -0.0418132  -0.0006886   0.0000524  -0.0004421
    3  -0.0000615   0.0002727  -0.0000795   0.0000902  -0.0000205  -0.0000507
           13          14          15          16
    1  -0.0003189   0.0002454  -0.0000280   0.0000915
    2  -0.0004650  -0.0000057  -0.0004700  -0.0000446
    3   0.0000036  -0.0000359  -0.0000196   0.0000164
 Gradient time:  CPU 75.36 s  wall 18.96 s
 Geometry Optimization Parameters
   NAtoms,    NIC,     NZ,  NCons,   NDum,   NFix, NCnnct, MaxDiis
       16     116       0       0       0       0       0       0

 Cartesian Hessian Update
 Hessian updated using BFGS update


** GEOMETRY OPTIMIZATION IN DELOCALIZED INTERNAL COORDINATES **
   Searching for a Minimum

   Optimization Cycle:  33

                       Coordinates (Angstroms)
     ATOM                X               Y               Z
      1  C         2.1721349168   -0.6893964687   -0.0000879014
      2  C         2.1517322047    0.7228088640    0.0000379205
      3  C         0.9239619543    1.4467787205    0.0004569037
      4  C        -0.2465841592    0.6743120705    0.0001880740
      5  C        -0.2536996913   -0.7692488693   -0.0010040296
      6  C         0.9777400800   -1.4630475943   -0.0005892949
      7  N        -1.5687207811    1.0718380727   -0.0003295406
      8  C        -1.6204760113   -1.1695047764    0.0012446599
      9  C        -2.4090830389   -0.0185479655   -0.0003980420
     10  H        -1.8776670551    2.0343826029    0.0020914990
     11  H        -1.9993411372   -2.1824974858    0.0014200396
     12  H        -3.4821939406    0.1017968958   -0.0020875903
     13  H         3.0896030355    1.2676094647    0.0001206715
     14  H         0.9018477622    2.5312411056   -0.0002806354
     15  H         3.1303836575   -1.1989593475   -0.0003461725
     16  H         1.0134571549   -2.5470127965    0.0000894198
   Point Group: c1    Number of degrees of freedom:    42


   Energy is   -363.481088950

 Hessian updated using BFGS update

 42 Hessian modes will be used to form the next step
  Hessian Eigenvalues:
     0.018635    0.019756    0.020063    0.020815    0.022152    0.022513
     0.022680    0.023051    0.023272    0.023661    0.023903    0.023996
     0.024177    0.155416    0.159831    0.160001    0.160017    0.160045
     0.160287    0.160757    0.211711    0.224052    0.233184    0.246488
     0.271283    0.344886    0.357108    0.357269    0.357807    0.358703
     0.364073    0.364589    0.388252    0.400953    0.427914    0.434720
     0.451701    0.468839    0.471631    0.482306    0.511636    0.990261

 Minimum search - taking simple RFO step
 Searching for Lamda that Minimizes Along All modes
 Value Taken    Lamda =  -0.00933034
 Step Taken.  Stepsize is  0.185827

                             Maximum     Tolerance    Cnvgd?
         Gradient           0.025476      0.000300      NO
         Displacement       0.078766      0.001200      NO
         Energy change     -0.006489      0.000001      NO


 New Cartesian Coordinates Obtained by Inverse Iteration

 Displacement from previous Coordinates is:  0.179289
 ----------------------------------------------------------------
             Standard Nuclear Orientation (Angstroms)
    I     Atom           X                Y                Z
 ----------------------------------------------------------------
    1      C       2.1794387932    -0.6955698622     0.0020743645
    2      C       2.1375340437     0.6961811142     0.0023480930
    3      C       0.9088417326     1.4431497176    -0.0012884103
    4      C      -0.2439019211     0.6558539354    -0.0044262901
    5      C      -0.2390899050    -0.7543555616    -0.0028350215
    6      C       0.9943930692    -1.4750301854     0.0017008983
    7      N      -1.5995418202     1.0695982047    -0.0041231741
    8      C      -1.5888423549    -1.1574111210    -0.0052798794
    9      C      -2.4086007980     0.0181380929     0.0039842698
   10      H      -1.9017988793     2.0352044998     0.0029243257
   11      H      -1.9748652424    -2.1683223678    -0.0046655452
   12      H      -3.4850695263     0.1166506046     0.0097320017
   13      H       3.0719682914     1.2504450582     0.0032521552
   14      H       0.8923107424     2.5267193279    -0.0052589692
   15      H       3.1453391951    -1.1900665208     0.0019371385
   16      H       1.0149795309    -2.5586324439     0.0004500241
 ----------------------------------------------------------------
 Molecular Point Group                 C1    NOp =  1
 Largest Abelian Subgroup              C1    NOp =  1
 Nuclear Repulsion Energy =         398.27717863 hartrees
 There are       31 alpha and       31 beta electrons
 Applying Cartesian multipole field
    Component          Value
    ---------          -----
     (2,0,0)        1.00000E-11
     (0,2,0)        2.00000E-11
     (0,0,2)       -3.00000E-11
 Nucleus-field energy     =     0.0000000119 hartrees
 Requested basis set is 6-31+G(d)
 There are 59 shells and 185 basis functions
 A cutoff of  1.0D-12 yielded   1657 shell pairs
 There are     17105 function pairs
 Smallest overlap matrix eigenvalue = 1.31E-06
 Guess MOs from SCF MO coefficient file

 -----------------------------------------------------------------------
  General SCF calculation program by
  Eric Jon Sundstrom, Paul Horn, Yuezhi Mao, Dmitri Zuev, Alec White,
  David Stuck, Shaama M.S., Shane Yost, Joonho Lee, David Small,
  Daniel Levine, Susi Lehtola, Hugh Burton, Evgeny Epifanovsky,
  Bang C. Huynh
 -----------------------------------------------------------------------
 Exchange:     0.5400 Hartree-Fock + 1.0000 M06-2X
 Correlation:  1.0000 M06-2X
 Using SG-3 standard quadrature grid
 using 4 threads for integral computing
 -------------------------------------------------------
 OpenMP Integral computing Module                
 Release: version 1.0, May 2013, Q-Chem Inc. Pittsburgh 
 -------------------------------------------------------
 A restricted SCF calculation will be
 performed using DIIS
 SCF converges when DIIS error is below 1.0e-08
 ---------------------------------------
  Cycle       Energy         DIIS error
 ---------------------------------------
    1    -363.6544677762      8.62e-04  
    2    -363.6587636083      1.94e-04  
    3    -363.6589023421      1.56e-04  
    4    -363.6590060626      3.25e-05  
    5    -363.6590132392      1.10e-05  
    6    -363.6590142393      7.09e-06  
    7    -363.6590145626      1.74e-06  
    8    -363.6590145842      9.08e-07  
    9    -363.6590145886      2.01e-07  
   10    -363.6590145888      1.13e-07  
   11    -363.6590145888      2.14e-08  
   12    -363.6590145888      9.14e-09  Convergence criterion met
 ---------------------------------------
 SCF time:   CPU 230.59s  wall 58.00s 
 SCF   energy in the final basis set =     -363.6590145888
 Total energy in the final basis set =     -363.6590145888
 
 Direct TDDFT/TDA calculation will be performed
 Exchange:     0.5400 Hartree-Fock + 1.0000 M06-2X
 Correlation:  1.0000 M06-2X
 Using SG-3 standard quadrature grid
 Singlet excitation energies requested
 CIS energy converged when residual is below 10e- 6
 ---------------------------------------------------
 Iter    Rts Conv    Rts Left    Ttl Dev     Max Dev
 ---------------------------------------------------
   1         0           3      0.002234    0.001725
   2         0           3      0.000475    0.000340
   3         0           3      0.000251    0.000123
   4         0           3      0.000131    0.000058
   5         0           3      0.000079    0.000036
   6         0           3      0.000081    0.000037
   7         0           3      0.000463    0.000431
   8         0           3      0.000188    0.000174
   9         0           3      0.000065    0.000061
  10         1           2      0.000028    0.000026
  11         2           1      0.000009    0.000008
  12         2           1      0.000003    0.000003
  13         3           0      0.000001    0.000001    Roots Converged
 ---------------------------------------------------
 
 ---------------------------------------------------
         TDDFT/TDA Excitation Energies              
 ---------------------------------------------------

 Excited state   1: excitation energy (eV) =    4.7213
 Total energy for state  1:                  -363.48550861 au
    Multiplicity: Singlet
    Trans. Mom.:  0.9392 X  -0.7018 Y  -0.0442 Z
    Strength   :     0.1592174977
    D(   31) --> V(    1) amplitude =  0.8954
    D(   31) --> V(    2) amplitude = -0.2753

 Excited state   2: excitation energy (eV) =    4.7348
 Total energy for state  2:                  -363.48501469 au
    Multiplicity: Singlet
    Trans. Mom.:  0.3225 X  -0.2379 Y   0.1264 Z
    Strength   :     0.0204820452
    D(   31) --> V(    1) amplitude =  0.2566
    D(   31) --> V(    2) amplitude =  0.9432

 Excited state   3: excitation energy (eV) =    5.1029
 Total energy for state  3:                  -363.47148635 au
    Multiplicity: Singlet
    Trans. Mom.: -0.1312 X   0.2864 Y   0.0005 Z
    Strength   :     0.0124072375
    D(   30) --> V(    1) amplitude =  0.7172
    D(   31) --> V(    7) amplitude =  0.6177
 
 ---------------------------------------------------
 Calculating Relaxed Density
 ---------------------------------------------------
 Iter    Rts Conv    Rts Left    Ttl Dev     Max Dev
 ---------------------------------------------------
   1         0           3      0.001216    0.000611
   2         0           3      0.000475    0.000236
   3         0           3      0.000129    0.000055
   4         0           3      0.000042    0.000019
   5         0           3      0.000012    0.000006
   6         2           1      0.000001    0.000001
   7         3           0      0.000000    0.000000    Roots Converged
 ---------------------------------------------------
  SETman timing summary (seconds)
  CPU time              1249.30s
  System time              0.00s
  Wall time              314.19s
 
 --------------------------------------------------------------
 
                    Orbital Energies (a.u.)
 --------------------------------------------------------------
 
 Alpha MOs
 -- Occupied --
-14.8156 -10.5911 -10.5870 -10.5619 -10.5551 -10.5514 -10.5500 -10.5480
-10.5372  -1.0996  -0.9416  -0.8750  -0.8368  -0.8001  -0.7123  -0.6802
 -0.6581  -0.6192  -0.5555  -0.5443  -0.5072  -0.5015  -0.4997  -0.4670
 -0.4527  -0.4108  -0.4039  -0.4024  -0.3327  -0.2847  -0.2409
 -- Virtual --
  0.0031   0.0057   0.0256   0.0311   0.0428   0.0458   0.0502   0.0665
  0.0674   0.0696   0.0743   0.0765   0.0980   0.1028   0.1086   0.1096
  0.1257   0.1387   0.1467   0.1501   0.1605   0.1618   0.1729   0.1792
  0.1876   0.1947   0.1976   0.2045   0.2101   0.2136   0.2244   0.2296
  0.2310   0.2379   0.2483   0.2502   0.2503   0.2590   0.2670   0.2763
  0.2869   0.2911   0.3061   0.3151   0.3257   0.3363   0.3450   0.3601
  0.3758   0.3895   0.4060   0.4244   0.4709   0.4873   0.5557   0.6220
  0.6537   0.7110   0.7186   0.7439   0.7578   0.7692   0.7733   0.7802
  0.7833   0.8027   0.8089   0.8198   0.8333   0.8386   0.8544   0.8987
  0.9341   0.9465   0.9582   0.9909   0.9986   1.0067   1.0142   1.0350
  1.0447   1.0745   1.0935   1.1083   1.1262   1.1498   1.1639   1.2077
  1.2123   1.2405   1.2571   1.2804   1.2940   1.3547   1.3725   1.3900
  1.4018   1.4293   1.4628   1.4719   1.5236   1.5275   1.5470   1.5548
  1.5736   1.6132   1.6688   1.8176   1.8615   1.9179   1.9348   1.9404
  1.9799   2.0365   2.0465   2.0501   2.0805   2.1092   2.1652   2.1944
  2.2070   2.2304   2.2605   2.2760   2.3140   2.3184   2.3429   2.4032
  2.4362   2.4917   2.5493   2.5824   2.6375   2.6656   2.6743   2.6943
  2.7522   2.8178   2.8541   2.8589   2.9564   2.9939   3.1079   3.2364
  3.4055   4.1790   4.2672   4.3097   4.3361   4.3814   4.4263   4.4973
  4.5407   4.7941
 --------------------------------------------------------------
 
