
Running Job 1 of 1 QfuncsCAM-B3LYP-VI-2nd.in
qchem QfuncsCAM-B3LYP-VI-2nd.in_119437.0 /scratch/scaparas/job_3584619/qchem119437/ 0
/cm/shared/apps/spack/cpu/opt/spack/linux-centos8-zen2/gcc-10.2.0/qchem-5.3-5qddma6gy34jvefiv7mbcb7qm253n45r/exe/qcprog.exe_s QfuncsCAM-B3LYP-VI-2nd.in_119437.0 /scratch/scaparas/job_3584619/qchem119437/
                  Welcome to Q-Chem
     A Quantum Leap Into The Future Of Chemistry


 Q-Chem 5.3, Q-Chem, Inc., Pleasanton, CA (2020)

 License issued to: University of California, San Diego (site)

 Yihan Shao,  Zhengting Gan,  E. Epifanovsky,  A. T. B. Gilbert,  M. Wormit,  
 J. Kussmann,  A. W. Lange,  A. Behn,  Jia Deng,  Xintian Feng,  D. Ghosh,  
 M. Goldey,  P. R. Horn,  L. D. Jacobson,  I. Kaliman,  T. Kus,  A. Landau,  
 Jie Liu,  E. I. Proynov,  R. M. Richard,  R. P. Steele,  E. J. Sundstrom,  
 H. L. Woodcock III,  P. M. Zimmerman,  D. Zuev,  B. Alam,  B. Albrecht,  
 A. Aldossary,  E. Alguire,  S. A. Baeppler,  D. Barton,  Z. Benda,  
 Y. A. Bernard,  E. J. Berquist,  K. B. Bravaya,  H. Burton,  K. Carter-Fenk,  
 D. Casanova,  Chun-Min Chang,  Yunqing Chen,  A. Chien,  K. D. Closser,  
 M. P. Coons,  S. Coriani,  S. Dasgupta,  A. L. Dempwolff,  M. Diedenhofen,  
 Hainam Do,  R. G. Edgar,  Po-Tung Fang,  S. Faraji,  S. Fatehi,  
 Qingguo Feng,  J. Fosso-Tande,  J. Gayvert,  Qinghui Ge,  A. Ghysels,  
 G. Gidofalvi,  J. Gomes,  J. Gonthier,  S. Gulania,  A. Gunina,  D. Hait,  
 M. W. D. Hanson-Heine,  S. Hammes-Schiffer,  P. H. P. Harbach,  
 A. W. Hauser,  M. F. Herbst,  J. E. Herr,  E. G. Hohenstein,  Z. C. Holden,  
 S. Houck,  Kerwin Hui,  B. C. Huynh,  M. Ivanov,  T.-C. Jagau,  Hyunjun Ji,  
 B. Kaduk,  K. Khistyaev,  Jaehoon Kim,  P. Klunzinger,  K. Koh,  
 D. Kosenkov,  L. Koulias,  T. Kowalczyk,  C. M. Krauter,  A. Kunitsa,  
 Ka Un Lao,  A. Laurent,  K. V. Lawler,  Joonho Lee,  D. Lefrancois,  
 S. Lehtola,  D. S. Levine,  Yi-Pei Li,  You-Sheng Lin,  Fenglai Liu,  
 Kuan-Yu Liu,  E. Livshits,  M. Loipersberger,  A. Luenser,  P. Manohar,  
 E. Mansoor,  S. F. Manzer,  Shan-Ping Mao,  Yuezhi Mao,  N. Mardirossian,  
 A. V. Marenich,  T. Markovich,  L. A. Martinez-Martinez,  S. A. Maurer,  
 N. J. Mayhall,  S. C. McKenzie,  J.-M. Mewes,  P. Morgante,  A. F. Morrison,  
 J. W. Mullinax,  K. Nanda,  T. S. Nguyen-Beck,  R. Olivares-Amaya,  
 K. J. Oosterbaan,  J. A. Parkhill,  S. K. Paul,  F. Pavosevic,  Zheng Pei,  
 T. M. Perrine,  F. Plasser,  P. Pokhilko,  S. Prager,  A. Prociuk,  
 E. Ramos,  B. Rana,  D. R. Rehn,  F. Rob,  E. Rossomme,  M. Scheurer,  
 M. Schneider,  N. Sergueev,  S. M. Sharada,  S. Sharma,  W. Skomorowski,  
 D. W. Small,  T. Stauch,  C. J. Stein,  T. Stein,  Yu-Chuan Su,  
 S. P. Veccham,  Zhen Tao,  A. J. W. Thom,  A. Tkatchenko,  T. Tsuchimochi,  
 N. M. Tubman,  L. Vogt,  M. L. Vidal,  O. Vydrov,  M. A. Watson,  J. Wenzel,  
 M. de Wergifosse,  T. A. Wesolowski,  A. White,  J. Witte,  A. Yamada,  
 Jun Yang,  K. Yao,  S. Yeganeh,  S. R. Yost,  Zhi-Qiang You,  A. Zech,  
 Igor Ying Zhang,  Xing Zhang,  Yan Zhao,  Ying Zhu,  B. R. Brooks,  
 G. K. L. Chan,  C. J. Cramer,  M. S. Gordon,  W. J. Hehre,  A. Klamt,  
 M. W. Schmidt,  C. D. Sherrill,  D. G. Truhlar,  A. Aspuru-Guzik,  R. Baer,  
 A. T. Bell,  N. A. Besley,  Jeng-Da Chai,  A. E. DePrince, III,  
 R. A. DiStasio Jr.,  A. Dreuw,  B. D. Dunietz,  T. R. Furlani,  
 Chao-Ping Hsu,  Yousung Jung,  Jing Kong,  D. S. Lambrecht,  WanZhen Liang,  
 C. Ochsenfeld,  V. A. Rassolov,  L. V. Slipchenko,  J. E. Subotnik,  
 T. Van Voorhis,  J. M. Herbert,  A. I. Krylov,  P. M. W. Gill,  M. Head-Gordon

 Contributors to earlier versions of Q-Chem not listed above: 
 R. D. Adamson,  B. Austin,  J. Baker,  G. J. O. Beran,  K. Brandhorst,  
 S. T. Brown,  E. F. C. Byrd,  A. K. Chakraborty,  C.-L. Cheng,  
 Siu Hung Chien,  D. M. Chipman,  D. L. Crittenden,  H. Dachsel,  
 R. J. Doerksen,  A. D. Dutoi,  L. Fusti-Molnar,  W. A. Goddard III,  
 A. Golubeva-Zadorozhnaya,  S. R. Gwaltney,  G. Hawkins,  A. Heyden,  
 S. Hirata,  G. Kedziora,  F. J. Keil,  C. Kelley,  Jihan Kim,  R. A. King,  
 R. Z. Khaliullin,  P. P. Korambath,  W. Kurlancheek,  A. M. Lee,  M. S. Lee,  
 S. V. Levchenko,  Ching Yeh Lin,  D. Liotard,  R. C. Lochan,  I. Lotan,  
 P. E. Maslen,  N. Nair,  D. P. O'Neill,  D. Neuhauser,  E. Neuscamman,  
 C. M. Oana,  R. Olson,  B. Peters,  R. Peverati,  P. A. Pieniazek,  
 Y. M. Rhee,  J. Ritchie,  M. A. Rohrdanz,  E. Rosta,  N. J. Russ,  
 H. F. Schaefer III,  N. E. Schultz,  N. Shenvi,  A. C. Simmonett,  A. Sodt,  
 D. Stuck,  K. S. Thanthiriwatte,  V. Vanovschi,  Tao Wang,  A. Warshel,  
 C. F. Williams,  Q. Wu,  X. Xu,  W. Zhang

 Please cite Q-Chem as follows:
 Y. Shao et al., Mol. Phys. 113, 184-215 (2015)
 DOI: 10.1080/00268976.2014.952696

 Q-Chem 5.3.1 for Intel X86 EM64T Linux

 Parts of Q-Chem use Armadillo 9.800.1 (Horizon Scraper).
 http://arma.sourceforge.net/

 Q-Chem begins on Wed Jun 23 13:28:54 2021  

Host: 
0

     Scratch files written to /scratch/scaparas/job_3584619/qchem119437//
 Aug2920 |scratch|qcdevops|jenkins|workspace|build_RNUM    
Processing $rem in /cm/shared/apps/spack/cpu/opt/spack/linux-centos8-zen2/gcc-10.2.0/qchem-5.3-5qddma6gy34jvefiv7mbcb7qm253n45r/config/preferences:
Processing $rem in /home/scaparas/.qchemrc:

Checking the input file for inconsistencies... 	...done.

--------------------------------------------------------------
User input:
--------------------------------------------------------------
$molecule
0 1
C   -2.1510630    0.6892080    0.0000880
C   -2.1279270   -0.7158180    0.0000750
C   -0.9322970   -1.4131000   -0.0000110
C    0.2469110   -0.6702010   -0.0000420
C    0.2481930    0.7482990    0.0000000
C   -0.9794740    1.4235260    0.0000320
N    1.5617740   -1.0775920   -0.0002850
C    1.6201330    1.1629000   -0.0001570
C    2.3820130    0.0308060    0.0002480
H    1.8763150   -2.0300110    0.0004380
H    1.9921730    2.1730100   -0.0003480
H    3.4525490   -0.0824250    0.0004080
H   -3.0615940   -1.2620200    0.0000880
H   -0.9172520   -2.4953420   -0.0000730
H   -3.1042030    1.2007850    0.0000900
H   -1.0093480    2.5054210   -0.0000150
$end

$rem
BASIS  =  6-31+G*
GUI  =  2
JOB_TYPE  =  Optimization
METHOD  = CAM-B3LYP
SCF_CONVERGENCE  =  8
THRESH = 12
CIS_N_ROOTS  = 3
CIS_SINGLETS = true
CIS_TRIPLETS = false
CIS_STATE_DERIV = 2
MEM_STATIC = 500
MEM_TOTAL = 3000
$end
--------------------------------------------------------------
 ----------------------------------------------------------------
             Standard Nuclear Orientation (Angstroms)
    I     Atom           X                Y                Z
 ----------------------------------------------------------------
    1      C       2.1510629040    -0.6892079969     0.0000583065
    2      C       2.1279268385     0.7158180020     0.0000481775
    3      C       0.9322968051     1.4130999466    -0.0000206639
    4      C      -0.2469111607     0.6702008918    -0.0000373513
    5      C      -0.2481930942    -0.7482991083     0.0000020775
    6      C       0.9794739374    -1.4235260513     0.0000165335
    7      N      -1.5617741827     1.0775918311    -0.0002621374
    8      C      -1.6201330769    -1.1629001718    -0.0001374500
    9      C      -2.3820131241    -0.0308062080     0.0002797387
   10      H      -1.8763152174     2.0300108152     0.0004667797
   11      H      -1.9921730325    -2.1730101887    -0.0003253498
   12      H      -3.4525491271     0.0824247420     0.0004541695
   13      H       3.0615938132     1.2620200454     0.0000497686
   14      H       0.9172517540     2.4953419460    -0.0000804893
   15      H       3.1042029277    -1.2007849526     0.0000467087
   16      H       1.0093479871    -2.5054210498    -0.0000328375
 ----------------------------------------------------------------
 Molecular Point Group                 C1    NOp =  1
 Largest Abelian Subgroup              C1    NOp =  1
 Nuclear Repulsion Energy =         401.33686680 hartrees
 There are       31 alpha and       31 beta electrons
 Requested basis set is 6-31+G(d)
 There are 59 shells and 185 basis functions

 Total QAlloc Memory Limit   3000 MB
 Mega-Array Size       489 MB
 MEM_STATIC part       500 MB
 A cutoff of  1.0D-12 yielded   1657 shell pairs
 There are     17105 function pairs
 Smallest overlap matrix eigenvalue = 1.26E-06

 Scale SEOQF with 1.000000e-01/1.000000e-01/1.000000e-01

 Standard Electronic Orientation quadrupole field applied
 Nucleus-field energy     =     0.0000000117 hartrees
 Guess from superposition of atomic densities
 Warning:  Energy on first SCF cycle will be non-variational
 SAD guess density has 62.000000 electrons

 -----------------------------------------------------------------------
  General SCF calculation program by
  Eric Jon Sundstrom, Paul Horn, Yuezhi Mao, Dmitri Zuev, Alec White,
  David Stuck, Shaama M.S., Shane Yost, Joonho Lee, David Small,
  Daniel Levine, Susi Lehtola, Hugh Burton, Evgeny Epifanovsky,
  Bang C. Huynh
 -----------------------------------------------------------------------
 Exchange:     0.1900 Hartree-Fock + 0.3500 B88 + 0.4600 muB88 + LR-HF
 Correlation:  0.1900 VWN5 + 0.8100 LYP
 Using SG-1 standard quadrature grid
 using 4 threads for integral computing
 -------------------------------------------------------
 OpenMP Integral computing Module                
 Release: version 1.0, May 2013, Q-Chem Inc. Pittsburgh 
 -------------------------------------------------------
 using 4 threads for integral computing
 -------------------------------------------------------
 OpenMP Integral computing Module                
 Release: version 1.0, May 2013, Q-Chem Inc. Pittsburgh 
 -------------------------------------------------------
 A restricted SCF calculation will be
 performed using DIIS
 SCF converges when DIIS error is below 1.0e-08
 ---------------------------------------
  Cycle       Energy         DIIS error
 ---------------------------------------
    1    -366.5269421691      5.59e-02  
    2    -363.5416758681      4.00e-03  
    3    -363.5688029305      3.49e-03  
    4    -363.6224082085      7.19e-04  
    5    -363.6241979082      3.39e-04  
    6    -363.6246703704      5.18e-05  
    7    -363.6246808351      2.11e-05  
    8    -363.6246829127      3.96e-06  
    9    -363.6246830654      2.13e-06  
   10    -363.6246830985      7.17e-07  
   11    -363.6246831040      2.81e-07  
   12    -363.6246831046      7.96e-08  
   13    -363.6246831047      3.36e-08  
   14    -363.6246831047      1.60e-08  
   15    -363.6246831047      3.55e-09  Convergence criterion met
 ---------------------------------------
 SCF time:   CPU 58.86s  wall 14.00s 
 SCF   energy in the final basis set =     -363.6246831047
 Total energy in the final basis set =     -363.6246831047
 
 Direct TDDFT/TDA calculation will be performed
 Exchange:     0.1900 Hartree-Fock + 0.3500 B88 + 0.4600 muB88 + LR-HF
 Correlation:  0.1900 VWN5 + 0.8100 LYP
 Using SG-1 standard quadrature grid
 Singlet excitation energies requested
 CIS energy converged when residual is below 10e- 6
 ---------------------------------------------------
 Iter    Rts Conv    Rts Left    Ttl Dev     Max Dev
 ---------------------------------------------------
   1         0           3      0.002309    0.001722
   2         0           3      0.000659    0.000427
   3         0           3      0.000347    0.000209
   4         0           3      0.000184    0.000095
   5         0           3      0.000214    0.000165
   6         0           3      0.000713    0.000661
   7         0           3      0.000499    0.000363
   8         0           3      0.000350    0.000265
   9         1           2      0.000147    0.000119
  10         1           2      0.000061    0.000049
  11         1           2      0.000022    0.000018
  12         1           2      0.000011    0.000009
  13         2           1      0.000004    0.000003
  14         3           0      0.000002    0.000001    Roots Converged
 ---------------------------------------------------
 
 ---------------------------------------------------
         TDDFT/TDA Excitation Energies              
 ---------------------------------------------------

 Excited state   1: excitation energy (eV) =    5.1591
 Total energy for state  1:                  -363.43508897 au
    Multiplicity: Singlet
    Trans. Mom.: -0.3310 X  -0.3500 Y  -0.0001 Z
    Strength   :     0.0293253961
    D(   30) --> V(    2) amplitude = -0.7896
    D(   31) --> V(    6) amplitude =  0.5366

 Excited state   2: excitation energy (eV) =    5.2636
 Total energy for state  2:                  -363.43124805 au
    Multiplicity: Singlet
    Trans. Mom.:  0.7982 X  -0.6298 Y  -0.0017 Z
    Strength   :     0.1333057385
    D(   30) --> V(    6) amplitude =  0.3157
    D(   31) --> V(    2) amplitude =  0.9042

 Excited state   3: excitation energy (eV) =    5.2882
 Total energy for state  3:                  -363.43034691 au
    Multiplicity: Singlet
    Trans. Mom.:  0.0080 X  -0.0064 Y   0.1613 Z
    Strength   :     0.0033840001
    D(   31) --> V(    1) amplitude =  0.9702
 
 ---------------------------------------------------
 Calculating Relaxed Density
 ---------------------------------------------------
 Iter    Rts Conv    Rts Left    Ttl Dev     Max Dev
 ---------------------------------------------------
   1         0           3      0.000943    0.000465
   2         0           3      0.000381    0.000198
   3         0           3      0.000111    0.000044
   4         0           3      0.000036    0.000017
   5         0           3      0.000011    0.000005
   6         2           1      0.000001    0.000001
   7         3           0      0.000000    0.000000    Roots Converged
 ---------------------------------------------------
  SETman timing summary (seconds)
  CPU time               221.74s
  System time              0.00s
  Wall time               55.76s
 
 --------------------------------------------------------------
 
                    Orbital Energies (a.u.)
 --------------------------------------------------------------
 
 Alpha MOs
 -- Occupied --
-14.4575 -10.2980 -10.2950 -10.2650 -10.2601 -10.2598 -10.2595 -10.2543
-10.2512  -1.0688  -0.9265  -0.8675  -0.8188  -0.8002  -0.7032  -0.6723
 -0.6591  -0.6157  -0.5552  -0.5441  -0.5077  -0.5001  -0.4970  -0.4810
 -0.4600  -0.4219  -0.4041  -0.4005  -0.3422  -0.2775  -0.2602
 -- Virtual --
  0.0245   0.0247   0.0429   0.0476   0.0622   0.0631   0.0638   0.0806
  0.0860   0.0908   0.0914   0.0940   0.1128   0.1200   0.1305   0.1318
  0.1407   0.1544   0.1674   0.1680   0.1825   0.1864   0.1947   0.1988
  0.2032   0.2170   0.2186   0.2188   0.2288   0.2360   0.2401   0.2494
  0.2509   0.2609   0.2649   0.2704   0.2736   0.2797   0.2914   0.2961
  0.3077   0.3097   0.3238   0.3384   0.3512   0.3601   0.3609   0.3770
  0.3982   0.4197   0.4300   0.4542   0.4979   0.5063   0.5718   0.6435
  0.6878   0.7288   0.7317   0.7550   0.7728   0.7765   0.7901   0.7927
  0.8012   0.8096   0.8162   0.8346   0.8494   0.8585   0.8747   0.9114
  0.9514   0.9582   0.9700   0.9937   1.0007   1.0110   1.0203   1.0423
  1.0624   1.0886   1.1060   1.1233   1.1550   1.1746   1.1806   1.2316
  1.2435   1.2694   1.2850   1.3104   1.3170   1.3824   1.3973   1.4169
  1.4323   1.4824   1.4915   1.5159   1.5377   1.5432   1.5750   1.5812
  1.6027   1.6560   1.7196   1.8625   1.9188   1.9587   1.9701   1.9946
  2.0132   2.0703   2.0734   2.0849   2.1397   2.1760   2.2182   2.2490
  2.2546   2.2743   2.3303   2.3416   2.3467   2.3621   2.3903   2.4628
  2.4910   2.5227   2.6252   2.6423   2.7139   2.7352   2.7534   2.7772
  2.8131   2.8875   2.9238   2.9359   3.0335   3.0567   3.1945   3.3216
  3.5294   4.2205   4.3266   4.3564   4.3918   4.4279   4.4650   4.5480
  4.5877   4.8596
 --------------------------------------------------------------
 
          Ground-State Mulliken Net Atomic Charges

     Atom                 Charge (a.u.)
  ----------------------------------------
      1 C                     0.021487
      2 C                    -0.462244
      3 C                    -0.120312
      4 C                    -0.775867
      5 C                     1.156029
      6 C                    -0.695367
      7 N                    -0.537449
      8 C                     0.130315
      9 C                    -0.257292
     10 H                     0.418440
     11 H                     0.195025
     12 H                     0.197793
     13 H                     0.180247
     14 H                     0.183077
     15 H                     0.178913
     16 H                     0.187206
  ----------------------------------------
  Sum of atomic charges =     0.000000

 -----------------------------------------------------------------
                    Cartesian Multipole Moments
 -----------------------------------------------------------------
    Charge (ESU x 10^10)
                -0.0000
    Dipole Moment (Debye)
         X      -1.4846      Y       1.5572      Z       0.0011
       Tot       2.1515
    Quadrupole Moments (Debye-Ang)
        XX     -45.6446     XY      -3.1668     YY     -44.7385
        XZ      -0.0032     YZ       0.0033     ZZ     -58.9022
    Octopole Moments (Debye-Ang^2)
       XXX     -14.8371    XXY       8.3326    XYY      -7.9601
       YYY      10.5457    XXZ       0.0075    XYZ      -0.0067
       YYZ       0.0021    XZZ      -1.9952    YZZ       2.0412
       ZZZ      -0.0011
    Hexadecapole Moments (Debye-Ang^3)
      XXXX    -820.3035   XXXY     -21.7369   XXYY    -197.9011
      XYYY     -19.9255   YYYY    -372.9389   XXXZ      -0.0239
      XXYZ       0.0132   XYYZ      -0.0072   YYYZ       0.0143
      XXZZ    -189.8136   XYZZ      -4.0134   YYZZ     -94.1949
      XZZZ      -0.0009   YZZZ       0.0031   ZZZZ     -74.3092
 -----------------------------------------------------------------
 Calculating analytic gradient of the CIS energy
 CIS relaxed dipole moment
            1
    1  -1.6537286
    2   0.5633562
    3  -0.0120936
	Magnitude:	 1.747 au	 4.441 Debye
 CIS 2 State Energy is -363.4312480498
 Gradient of the state energy (including CIS Excitation Energy)
            1           2           3           4           5           6
    1  -0.0228787  -0.0324899   0.0357236  -0.0143426   0.0215069   0.0072835
    2  -0.0283327   0.0364869  -0.0303534   0.0148689  -0.0085653   0.0317702
    3   0.0000317  -0.0000011  -0.0001104   0.0000952   0.0000197  -0.0000924
            7           8           9          10          11          12
    1   0.0238450  -0.0450692   0.0222821   0.0031360   0.0017460   0.0031210
    2   0.0252361   0.0187067  -0.0555420  -0.0061875   0.0030850  -0.0007836
    3   0.0000567   0.0000250  -0.0000311  -0.0000622  -0.0000035  -0.0000008
           13          14          15          16
    1  -0.0024827   0.0006400  -0.0023170   0.0002959
    2  -0.0012594  -0.0025645   0.0007930   0.0026417
    3   0.0000008   0.0000436   0.0000077   0.0000210
 Gradient time:  CPU 38.33 s  wall 9.64 s
 Geometry Optimization Parameters
   NAtoms,    NIC,     NZ,  NCons,   NDum,   NFix, NCnnct, MaxDiis
       16     116       0       0       0       0       0       0


** GEOMETRY OPTIMIZATION IN DELOCALIZED INTERNAL COORDINATES **
   Searching for a Minimum

   Optimization Cycle:   1

                       Coordinates (Angstroms)
     ATOM                X               Y               Z
      1  C         2.1510629040   -0.6892079969    0.0000583065
      2  C         2.1279268385    0.7158180020    0.0000481775
      3  C         0.9322968051    1.4130999466   -0.0000206639
      4  C        -0.2469111607    0.6702008918   -0.0000373513
      5  C        -0.2481930942   -0.7482991083    0.0000020775
      6  C         0.9794739374   -1.4235260513    0.0000165335
      7  N        -1.5617741827    1.0775918311   -0.0002621374
      8  C        -1.6201330769   -1.1629001718   -0.0001374500
      9  C        -2.3820131241   -0.0308062080    0.0002797387
     10  H        -1.8763152174    2.0300108152    0.0004667797
     11  H        -1.9921730325   -2.1730101887   -0.0003253498
     12  H        -3.4525491271    0.0824247420    0.0004541695
     13  H         3.0615938132    1.2620200454    0.0000497686
     14  H         0.9172517540    2.4953419460   -0.0000804893
     15  H         3.1042029277   -1.2007849526    0.0000467087
     16  H         1.0093479871   -2.5054210498   -0.0000328375
   Point Group: c1    Number of degrees of freedom:    42


   Energy is   -363.431248050


 Attempting to generate delocalized internal coordinates
 Initial Hessian constructed with Jon Baker's OPTIMIZE code

 42 Hessian modes will be used to form the next step
  Hessian Eigenvalues:
     0.018594    0.019738    0.020011    0.020794    0.021683    0.022200
     0.022636    0.023004    0.023236    0.023608    0.023851    0.023984
     0.024127    0.160000    0.160000    0.160000    0.160000    0.160000
     0.160000    0.160000    0.220000    0.221879    0.226618    0.240111
     0.246509    0.357123    0.357170    0.357835    0.357899    0.364196
     0.364272    0.370088    0.384319    0.426334    0.434649    0.457693
     0.466917    0.471622    0.474685    0.475669    0.481247    0.509555

 Minimum search - taking simple RFO step
 Searching for Lamda that Minimizes Along All modes
 Value Taken    Lamda =  -0.01530416
 Step Taken.  Stepsize is  0.186327

                             Maximum     Tolerance    Cnvgd?
         Gradient           0.030152      0.000300      NO
         Displacement       0.070570      0.001200      NO
         Energy change     *********      0.000001      NO


 New Cartesian Coordinates Obtained by Inverse Iteration

 Displacement from previous Coordinates is:  0.246540
 ----------------------------------------------------------------
             Standard Nuclear Orientation (Angstroms)
    I     Atom           X                Y                Z
 ----------------------------------------------------------------
    1      C       2.1859912401    -0.6942351260     0.0001052102
    2      C       2.1481342627     0.7008091850     0.0001058441
    3      C       0.9133664967     1.4255387022     0.0001153696
    4      C      -0.2553979097     0.6596623436    -0.0003053220
    5      C      -0.2434112720    -0.7558202927    -0.0000992336
    6      C       0.9962151642    -1.4595012235     0.0003339188
    7      N      -1.5898698599     1.0730592183    -0.0004172688
    8      C      -1.6056509530    -1.1497363276    -0.0004043783
    9      C      -2.4162994665     0.0021323481     0.0001927336
   10      H      -1.9024743660     2.0339569327     0.0009846775
   11      H      -1.9782329618    -2.1648427893    -0.0004755899
   12      H      -3.4909940656     0.1182580258     0.0005954283
   13      H       3.0835750109     1.2517726316    -0.0000264068
   14      H       0.8862455563     2.5112022653    -0.0003267972
   15      H       3.1489897173    -1.1944824298    -0.0000388744
   16      H       1.0229083577    -2.5452209711     0.0001866698
 ----------------------------------------------------------------
 Molecular Point Group                 C1    NOp =  1
 Largest Abelian Subgroup              C1    NOp =  1
 Nuclear Repulsion Energy =         398.32002420 hartrees
 There are       31 alpha and       31 beta electrons
 Applying Cartesian multipole field
    Component          Value
    ---------          -----
     (2,0,0)        1.00000E-11
     (0,2,0)        2.00000E-11
     (0,0,2)       -3.00000E-11
 Nucleus-field energy     =     0.0000000119 hartrees
 Requested basis set is 6-31+G(d)
 There are 59 shells and 185 basis functions
 A cutoff of  1.0D-12 yielded   1657 shell pairs
 There are     17105 function pairs
 Smallest overlap matrix eigenvalue = 1.29E-06
 Guess MOs from SCF MO coefficient file

 -----------------------------------------------------------------------
  General SCF calculation program by
  Eric Jon Sundstrom, Paul Horn, Yuezhi Mao, Dmitri Zuev, Alec White,
  David Stuck, Shaama M.S., Shane Yost, Joonho Lee, David Small,
  Daniel Levine, Susi Lehtola, Hugh Burton, Evgeny Epifanovsky,
  Bang C. Huynh
 -----------------------------------------------------------------------
 Exchange:     0.1900 Hartree-Fock + 0.3500 B88 + 0.4600 muB88 + LR-HF
 Correlation:  0.1900 VWN5 + 0.8100 LYP
 Using SG-1 standard quadrature grid
 using 4 threads for integral computing
 -------------------------------------------------------
 OpenMP Integral computing Module                
 Release: version 1.0, May 2013, Q-Chem Inc. Pittsburgh 
 -------------------------------------------------------
 using 4 threads for integral computing
 -------------------------------------------------------
 OpenMP Integral computing Module                
 Release: version 1.0, May 2013, Q-Chem Inc. Pittsburgh 
 -------------------------------------------------------
 A restricted SCF calculation will be
 performed using DIIS
 SCF converges when DIIS error is below 1.0e-08
 ---------------------------------------
  Cycle       Energy         DIIS error
 ---------------------------------------
    1    -363.6139769325      8.60e-04  
    2    -363.6179361528      2.05e-04  
    3    -363.6180891778      1.48e-04  
    4    -363.6181800794      3.91e-05  
    5    -363.6181877764      1.79e-05  
    6    -363.6181901979      6.55e-06  
    7    -363.6181905770      2.30e-06  
    8    -363.6181906447      8.28e-07  
    9    -363.6181906507      3.09e-07  
   10    -363.6181906512      9.35e-08  
   11    -363.6181906513      3.53e-08  
   12    -363.6181906513      1.33e-08  
   13    -363.6181906513      3.44e-09  Convergence criterion met
 ---------------------------------------
 SCF time:   CPU 51.73s  wall 13.00s 
 SCF   energy in the final basis set =     -363.6181906513
 Total energy in the final basis set =     -363.6181906513
 
 Direct TDDFT/TDA calculation will be performed
 Exchange:     0.1900 Hartree-Fock + 0.3500 B88 + 0.4600 muB88 + LR-HF
 Correlation:  0.1900 VWN5 + 0.8100 LYP
 Using SG-1 standard quadrature grid
 Singlet excitation energies requested
 CIS energy converged when residual is below 10e- 6
 ---------------------------------------------------
 Iter    Rts Conv    Rts Left    Ttl Dev     Max Dev
 ---------------------------------------------------
   1         0           3      0.002359    0.001763
   2         0           3      0.000539    0.000379
   3         0           3      0.000281    0.000174
   4         0           3      0.000160    0.000076
   5         0           3      0.000088    0.000051
   6         0           3      0.000067    0.000037
   7         0           3      0.000938    0.000906
   8         1           2      0.000401    0.000373
   9         1           2      0.000184    0.000168
  10         1           2      0.000068    0.000062
  11         1           2      0.000023    0.000021
  12         2           1      0.000008    0.000007
  13         2           1      0.000004    0.000003
  14         3           0      0.000002    0.000001    Roots Converged
 ---------------------------------------------------
 
 ---------------------------------------------------
         TDDFT/TDA Excitation Energies              
 ---------------------------------------------------

 Excited state   1: excitation energy (eV) =    4.8522
 Total energy for state  1:                  -363.43987597 au
    Multiplicity: Singlet
    Trans. Mom.: -0.9610 X   0.7587 Y   0.0007 Z
    Strength   :     0.1782082448
    D(   30) --> V(    5) amplitude = -0.2378
    D(   31) --> V(    1) amplitude =  0.9260

 Excited state   2: excitation energy (eV) =    5.0054
 Total energy for state  2:                  -363.43424406 au
    Multiplicity: Singlet
    Trans. Mom.: -0.0036 X   0.0036 Y  -0.1712 Z
    Strength   :     0.0035956999
    D(   31) --> V(    2) amplitude =  0.9749

 Excited state   3: excitation energy (eV) =    5.0412
 Total energy for state  3:                  -363.43293131 au
    Multiplicity: Singlet
    Trans. Mom.: -0.0999 X  -0.3158 Y  -0.0005 Z
    Strength   :     0.0135504148
    D(   30) --> V(    1) amplitude =  0.7544
    D(   31) --> V(    5) amplitude =  0.5847
 
 ---------------------------------------------------
 Calculating Relaxed Density
 ---------------------------------------------------
 Iter    Rts Conv    Rts Left    Ttl Dev     Max Dev
 ---------------------------------------------------
   1         0           3      0.001052    0.000519
   2         0           3      0.000411    0.000207
   3         0           3      0.000120    0.000051
   4         0           3      0.000039    0.000019
   5         0           3      0.000011    0.000005
   6         1           2      0.000002    0.000001
   7         3           0      0.000000    0.000000    Roots Converged
 ---------------------------------------------------
  SETman timing summary (seconds)
  CPU time               218.34s
  System time              0.00s
  Wall time               54.89s
 
 --------------------------------------------------------------
 
                    Orbital Energies (a.u.)
 --------------------------------------------------------------
 
 Alpha MOs
 -- Occupied --
-14.4611 -10.3028 -10.2983 -10.2727 -10.2677 -10.2650 -10.2636 -10.2608
-10.2518  -1.0703  -0.9219  -0.8613  -0.8216  -0.7912  -0.7051  -0.6724
 -0.6547  -0.6143  -0.5555  -0.5446  -0.5066  -0.5013  -0.4965  -0.4718
 -0.4620  -0.4195  -0.4054  -0.4022  -0.3370  -0.2845  -0.2503
 -- Virtual --
  0.0156   0.0233   0.0427   0.0480   0.0614   0.0615   0.0638   0.0807
  0.0855   0.0899   0.0903   0.0936   0.1134   0.1184   0.1301   0.1311
  0.1402   0.1546   0.1656   0.1669   0.1807   0.1845   0.1926   0.1981
  0.2038   0.2144   0.2189   0.2197   0.2283   0.2350   0.2397   0.2460
  0.2500   0.2569   0.2651   0.2681   0.2684   0.2780   0.2890   0.2967
  0.3062   0.3097   0.3204   0.3356   0.3436   0.3535   0.3599   0.3753
  0.3954   0.4085   0.4231   0.4430   0.4838   0.5044   0.5676   0.6335
  0.6687   0.7288   0.7291   0.7537   0.7733   0.7783   0.7883   0.7907
  0.7907   0.8108   0.8151   0.8319   0.8472   0.8480   0.8672   0.9091
  0.9454   0.9512   0.9620   0.9979   1.0025   1.0103   1.0186   1.0444
  1.0552   1.0860   1.1042   1.1162   1.1497   1.1721   1.1801   1.2324
  1.2352   1.2692   1.2801   1.3087   1.3105   1.3793   1.3948   1.4193
  1.4234   1.4708   1.4815   1.5053   1.5424   1.5473   1.5681   1.5738
  1.6034   1.6508   1.7024   1.8555   1.8952   1.9508   1.9706   1.9740
  2.0049   2.0610   2.0686   2.0772   2.1093   2.1426   2.2034   2.2255
  2.2390   2.2675   2.3082   2.3271   2.3426   2.3481   2.3762   2.4450
  2.4748   2.5242   2.6012   2.6308   2.6964   2.7224   2.7247   2.7476
  2.7963   2.8666   2.9022   2.9181   3.0222   3.0430   3.1608   3.3102
  3.4795   4.2182   4.3088   4.3456   4.3798   4.4209   4.4661   4.5406
  4.5817   4.8446
 --------------------------------------------------------------
 
          Ground-State Mulliken Net Atomic Charges

     Atom                 Charge (a.u.)
  ----------------------------------------
      1 C                    -0.011624
      2 C                    -0.412441
      3 C                    -0.258061
      4 C                    -0.786368
      5 C                     1.235391
      6 C                    -0.577151
      7 N                    -0.512345
      8 C                    -0.010166
      9 C                    -0.219695
     10 H                     0.419311
     11 H                     0.190602
     12 H                     0.202962
     13 H                     0.180680
     14 H                     0.185730
     15 H                     0.181888
     16 H                     0.191287
  ----------------------------------------
  Sum of atomic charges =     0.000000

 -----------------------------------------------------------------
                    Cartesian Multipole Moments
 -----------------------------------------------------------------
    Charge (ESU x 10^10)
                 0.0000
    Dipole Moment (Debye)
         X      -1.4828      Y       1.6993      Z       0.0018
       Tot       2.2553
    Quadrupole Moments (Debye-Ang)
        XX     -45.2814     XY      -3.8323     YY     -44.8602
        XZ      -0.0078     YZ       0.0047     ZZ     -59.3258
    Octopole Moments (Debye-Ang^2)
       XXX     -15.8158    XXY       9.3633    XYY      -7.5576
       YYY      11.4012    XXZ       0.0140    XYZ      -0.0119
       YYZ       0.0066    XZZ      -2.0844    YZZ       2.3318
       ZZZ       0.0038
    Hexadecapole Moments (Debye-Ang^3)
      XXXX    -827.5994   XXXY     -22.1760   XXYY    -202.4509
      XYYY     -17.6561   YYYY    -375.8882   XXXZ      -0.0820
      XXYZ       0.0237   XYYZ      -0.0299   YYYZ       0.0215
      XXZZ    -194.3789   XYZZ      -2.7824   YYZZ     -95.8550
      XZZZ      -0.0321   YZZZ       0.0066   ZZZZ     -75.7749
 -----------------------------------------------------------------
 Calculating analytic gradient of the CIS energy
 CIS relaxed dipole moment
            1
    1   2.3486758
    2  -2.4009795
    3   0.0033168
	Magnitude:	 3.359 au	 8.537 Debye
 CIS 2 State Energy is -363.4342440609
 Gradient of the state energy (including CIS Excitation Energy)
            1           2           3           4           5           6
    1   0.0142370   0.0159667   0.0040240  -0.0165189  -0.0062601  -0.0002077
    2   0.0086261  -0.0042790   0.0184085  -0.0142631   0.0038391  -0.0194618
    3  -0.0000178  -0.0000224   0.0001218  -0.0000514   0.0000096   0.0001022
            7           8           9          10          11          12
    1   0.0112908  -0.0047868  -0.0310520   0.0092402   0.0012322   0.0012022
    2   0.0441490   0.0131574  -0.0291339  -0.0228751   0.0013117  -0.0012873
    3  -0.0001432  -0.0000867   0.0001439   0.0000260   0.0000020  -0.0000034
           13          14          15          16
    1   0.0012828  -0.0002055   0.0008867  -0.0003316
    2  -0.0007464   0.0031126   0.0008856  -0.0014434
    3  -0.0000048  -0.0000419  -0.0000076  -0.0000263
 Gradient time:  CPU 38.68 s  wall 9.72 s
 Geometry Optimization Parameters
   NAtoms,    NIC,     NZ,  NCons,   NDum,   NFix, NCnnct, MaxDiis
       16     116       0       0       0       0       0       0

 Cartesian Hessian Update
 Hessian updated using BFGS update


** GEOMETRY OPTIMIZATION IN DELOCALIZED INTERNAL COORDINATES **
   Searching for a Minimum

   Optimization Cycle:   2

                       Coordinates (Angstroms)
     ATOM                X               Y               Z
      1  C         2.1859912401   -0.6942351260    0.0001052102
      2  C         2.1481342627    0.7008091850    0.0001058441
      3  C         0.9133664967    1.4255387022    0.0001153696
      4  C        -0.2553979097    0.6596623436   -0.0003053220
      5  C        -0.2434112720   -0.7558202927   -0.0000992336
      6  C         0.9962151642   -1.4595012235    0.0003339188
      7  N        -1.5898698599    1.0730592183   -0.0004172688
      8  C        -1.6056509530   -1.1497363276   -0.0004043783
      9  C        -2.4162994665    0.0021323481    0.0001927336
     10  H        -1.9024743660    2.0339569327    0.0009846775
     11  H        -1.9782329618   -2.1648427893   -0.0004755899
     12  H        -3.4909940656    0.1182580258    0.0005954283
     13  H         3.0835750109    1.2517726316   -0.0000264068
     14  H         0.8862455563    2.5112022653   -0.0003267972
     15  H         3.1489897173   -1.1944824298   -0.0000388744
     16  H         1.0229083577   -2.5452209711    0.0001866698
   Point Group: c1    Number of degrees of freedom:    42


   Energy is   -363.434244061

 Hessian updated using BFGS update

 40 Hessian modes will be used to form the next step
  Hessian Eigenvalues:
     0.018594    0.019738    0.020011    0.020794    0.021683    0.022200
     0.022636    0.023004    0.023236    0.023609    0.023851    0.023984
     0.024127    0.158675    0.160000    0.160000    0.160000    0.160130
     0.215015    0.222213    0.233239    0.243001    0.249207    0.297168
     0.357197    0.357500    0.357863    0.358302    0.364228    0.365687
     0.372607    0.384820    0.427433    0.434910    0.461261    0.468413
     0.473513    0.476289    0.493896    0.910161

 Minimum search - taking simple RFO step
 Searching for Lamda that Minimizes Along All modes
 Value Taken    Lamda =  -0.00609830
 Step Taken.  Stepsize is  0.120328

                             Maximum     Tolerance    Cnvgd?
         Gradient           0.025806      0.000300      NO
         Displacement       0.049352      0.001200      NO
         Energy change     -0.002996      0.000001      NO


 New Cartesian Coordinates Obtained by Inverse Iteration

 Displacement from previous Coordinates is:  0.156774
 ----------------------------------------------------------------
             Standard Nuclear Orientation (Angstroms)
    I     Atom           X                Y                Z
 ----------------------------------------------------------------
    1      C       2.1792481821    -0.6980965012    -0.0000853661
    2      C       2.1308096979     0.6901895166     0.0000472755
    3      C       0.8959845957     1.4182999760    -0.0000388953
    4      C      -0.2507922147     0.6576748644    -0.0001500293
    5      C      -0.2329382773    -0.7573336745    -0.0000378987
    6      C       0.9964641383    -1.4612263262     0.0000200514
    7      N      -1.5905266311     1.0673291350     0.0000259601
    8      C      -1.5799762064    -1.1570829306     0.0000890841
    9      C      -2.3868638709     0.0221931144    -0.0001686267
   10      H      -1.9263039762     2.0478924215     0.0009966384
   11      H      -1.9620269230    -2.1727710809     0.0000913832
   12      H      -3.4635436414     0.1499775180    -0.0001647250
   13      H       3.0615619329     1.2501598241     0.0000917648
   14      H       0.8662729955     2.5014023245    -0.0001322634
   15      H       3.1425692717    -1.1994891478    -0.0001237109
   16      H       1.0231558782    -2.5465665407     0.0000653391
 ----------------------------------------------------------------
 Molecular Point Group                 C1    NOp =  1
 Largest Abelian Subgroup              C1    NOp =  1
 Nuclear Repulsion Energy =         400.11370071 hartrees
 There are       31 alpha and       31 beta electrons
 Applying Cartesian multipole field
    Component          Value
    ---------          -----
     (2,0,0)        1.00000E-11
     (0,2,0)        2.00000E-11
     (0,0,2)       -3.00000E-11
 Nucleus-field energy     =     0.0000000118 hartrees
 Requested basis set is 6-31+G(d)
 There are 59 shells and 185 basis functions
 A cutoff of  1.0D-12 yielded   1658 shell pairs
 There are     17111 function pairs
 Smallest overlap matrix eigenvalue = 1.19E-06
 Guess MOs from SCF MO coefficient file

 -----------------------------------------------------------------------
  General SCF calculation program by
  Eric Jon Sundstrom, Paul Horn, Yuezhi Mao, Dmitri Zuev, Alec White,
  David Stuck, Shaama M.S., Shane Yost, Joonho Lee, David Small,
  Daniel Levine, Susi Lehtola, Hugh Burton, Evgeny Epifanovsky,
  Bang C. Huynh
 -----------------------------------------------------------------------
 Exchange:     0.1900 Hartree-Fock + 0.3500 B88 + 0.4600 muB88 + LR-HF
 Correlation:  0.1900 VWN5 + 0.8100 LYP
 Using SG-1 standard quadrature grid
 using 4 threads for integral computing
 -------------------------------------------------------
 OpenMP Integral computing Module                
 Release: version 1.0, May 2013, Q-Chem Inc. Pittsburgh 
 -------------------------------------------------------
 using 4 threads for integral computing
 -------------------------------------------------------
 OpenMP Integral computing Module                
 Release: version 1.0, May 2013, Q-Chem Inc. Pittsburgh 
 -------------------------------------------------------
 A restricted SCF calculation will be
 performed using DIIS
 SCF converges when DIIS error is below 1.0e-08
 ---------------------------------------
  Cycle       Energy         DIIS error
 ---------------------------------------
    1    -363.6112591241      5.36e-04  
    2    -363.6129166877      1.19e-04  
    3    -363.6129849962      8.44e-05  
    4    -363.6130150082      2.98e-05  
    5    -363.6130198570      8.91e-06  
    6    -363.6130206044      6.29e-06  
    7    -363.6130208770      1.32e-06  
    8    -363.6130208932      7.15e-07  
    9    -363.6130208963      1.95e-07  
   10    -363.6130208966      7.42e-08  
   11    -363.6130208966      1.79e-08  
   12    -363.6130208966      9.30e-09  Convergence criterion met
 ---------------------------------------
 SCF time:   CPU 50.22s  wall 13.00s 
 SCF   energy in the final basis set =     -363.6130208966
 Total energy in the final basis set =     -363.6130208966
 
 Direct TDDFT/TDA calculation will be performed
 Exchange:     0.1900 Hartree-Fock + 0.3500 B88 + 0.4600 muB88 + LR-HF
 Correlation:  0.1900 VWN5 + 0.8100 LYP
 Using SG-1 standard quadrature grid
 Singlet excitation energies requested
 CIS energy converged when residual is below 10e- 6
 ---------------------------------------------------
 Iter    Rts Conv    Rts Left    Ttl Dev     Max Dev
 ---------------------------------------------------
   1         0           3      0.002323    0.001762
   2         0           3      0.000523    0.000370
   3         0           3      0.000267    0.000170
   4         0           3      0.000146    0.000078
   5         0           3      0.000079    0.000037
   6         0           3      0.000080    0.000045
   7         0           3      0.000597    0.000561
   8         1           2      0.000257    0.000238
   9         1           2      0.000115    0.000107
  10         1           2      0.000051    0.000048
  11         2           1      0.000016    0.000015
  12         2           1      0.000006    0.000006
  13         2           1      0.000003    0.000002
  14         3           0      0.000001    0.000001    Roots Converged
 ---------------------------------------------------
 
 ---------------------------------------------------
         TDDFT/TDA Excitation Energies              
 ---------------------------------------------------

 Excited state   1: excitation energy (eV) =    4.7543
 Total energy for state  1:                  -363.43830374 au
    Multiplicity: Singlet
    Trans. Mom.:  1.0533 X  -0.7504 Y  -0.0020 Z
    Strength   :     0.1948122800
    D(   30) --> V(    6) amplitude = -0.2196
    D(   31) --> V(    1) amplitude =  0.9277

 Excited state   2: excitation energy (eV) =    4.7668
 Total energy for state  2:                  -363.43784263 au
    Multiplicity: Singlet
    Trans. Mom.: -0.0139 X   0.0097 Y  -0.1618 Z
    Strength   :     0.0030924794
    D(   31) --> V(    2) amplitude =  0.9781

 Excited state   3: excitation energy (eV) =    5.0929
 Total energy for state  3:                  -363.42586040 au
    Multiplicity: Singlet
    Trans. Mom.: -0.1849 X   0.2465 Y   0.0001 Z
    Strength   :     0.0118467982
    D(   30) --> V(    1) amplitude =  0.7054
    D(   31) --> V(    6) amplitude =  0.6396
 
 ---------------------------------------------------
 Calculating Relaxed Density
 ---------------------------------------------------
 Iter    Rts Conv    Rts Left    Ttl Dev     Max Dev
 ---------------------------------------------------
   1         0           3      0.001093    0.000541
   2         0           3      0.000419    0.000206
   3         0           3      0.000122    0.000053
   4         0           3      0.000038    0.000018
   5         0           3      0.000011    0.000005
   6         3           0      0.000000    0.000000    Roots Converged
 ---------------------------------------------------
  SETman timing summary (seconds)
  CPU time               213.74s
  System time              0.00s
  Wall time               53.74s
 
 --------------------------------------------------------------
 
                    Orbital Energies (a.u.)
 --------------------------------------------------------------
 
 Alpha MOs
 -- Occupied --
-14.4656 -10.3022 -10.2954 -10.2704 -10.2638 -10.2621 -10.2612 -10.2590
-10.2493  -1.0793  -0.9260  -0.8606  -0.8261  -0.7875  -0.7068  -0.6721
 -0.6556  -0.6156  -0.5540  -0.5438  -0.5102  -0.5034  -0.5020  -0.4693
 -0.4577  -0.4181  -0.4056  -0.4055  -0.3372  -0.2882  -0.2443
 -- Virtual --
  0.0177   0.0206   0.0426   0.0485   0.0618   0.0632   0.0642   0.0810
  0.0854   0.0901   0.0906   0.0929   0.1137   0.1184   0.1304   0.1315
  0.1399   0.1550   0.1649   0.1661   0.1797   0.1852   0.1921   0.1985
  0.2040   0.2130   0.2196   0.2201   0.2279   0.2352   0.2403   0.2479
  0.2507   0.2580   0.2664   0.2685   0.2692   0.2778   0.2872   0.2963
  0.3066   0.3090   0.3233   0.3378   0.3429   0.3553   0.3635   0.3805
  0.3992   0.4099   0.4261   0.4476   0.4870   0.5067   0.5744   0.6389
  0.6750   0.7290   0.7292   0.7527   0.7761   0.7786   0.7887   0.7902
  0.7970   0.8125   0.8255   0.8325   0.8491   0.8519   0.8730   0.9109
  0.9430   0.9507   0.9638   0.9982   1.0026   1.0129   1.0171   1.0455
  1.0593   1.0831   1.1010   1.1044   1.1488   1.1727   1.1840   1.2379
  1.2392   1.2712   1.2814   1.3086   1.3106   1.3905   1.3910   1.4222
  1.4271   1.4729   1.4874   1.5089   1.5433   1.5473   1.5702   1.5765
  1.6076   1.6507   1.7136   1.8460   1.8985   1.9539   1.9752   1.9803
  2.0094   2.0650   2.0674   2.0852   2.1208   2.1549   2.2099   2.2362
  2.2534   2.2573   2.3129   2.3253   2.3580   2.3735   2.3951   2.4557
  2.4933   2.5346   2.6027   2.6434   2.7007   2.7255   2.7377   2.7566
  2.8038   2.8792   2.9116   2.9227   3.0251   3.0566   3.1713   3.3198
  3.5020   4.2242   4.3151   4.3493   4.3776   4.4265   4.4675   4.5451
  4.5856   4.8519
 --------------------------------------------------------------
 
          Ground-State Mulliken Net Atomic Charges

     Atom                 Charge (a.u.)
  ----------------------------------------
      1 C                    -0.018189
      2 C                    -0.412533
      3 C                    -0.265312
      4 C                    -0.773153
      5 C                     1.229321
      6 C                    -0.566732
      7 N                    -0.481975
      8 C                    -0.032627
      9 C                    -0.226767
     10 H                     0.420740
     11 H                     0.190418
     12 H                     0.199998
     13 H                     0.178288
     14 H                     0.185617
     15 H                     0.182022
     16 H                     0.190884
  ----------------------------------------
  Sum of atomic charges =     0.000000

 -----------------------------------------------------------------
                    Cartesian Multipole Moments
 -----------------------------------------------------------------
    Charge (ESU x 10^10)
                -0.0000
    Dipole Moment (Debye)
         X      -1.5769      Y       1.8826      Z       0.0013
       Tot       2.4558
    Quadrupole Moments (Debye-Ang)
        XX     -45.5167     XY      -4.3900     YY     -44.7294
        XZ      -0.0029     YZ       0.0035     ZZ     -59.2319
    Octopole Moments (Debye-Ang^2)
       XXX     -16.2820    XXY      10.2270    XYY      -8.1563
       YYY      12.3662    XXZ       0.0059    XYZ      -0.0075
       YYZ       0.0101    XZZ      -2.1885    YZZ       2.6292
       ZZZ       0.0038
    Hexadecapole Moments (Debye-Ang^3)
      XXXX    -821.9199   XXXY     -23.7476   XXYY    -199.3357
      XYYY     -16.7630   YYYY    -374.8812   XXXZ      -0.0082
      XXYZ       0.0172   XYYZ      -0.0182   YYYZ       0.0142
      XXZZ    -191.9342   XYZZ      -2.2669   YYZZ     -95.7777
      XZZZ      -0.0007   YZZZ       0.0009   ZZZZ     -75.6425
 -----------------------------------------------------------------
 Calculating analytic gradient of the CIS energy
 CIS relaxed dipole moment
            1
    1   2.3997111
    2  -2.4500017
    3   0.0142123
	Magnitude:	 3.429 au	 8.717 Debye
 CIS 2 State Energy is -363.4378426278
 Gradient of the state energy (including CIS Excitation Energy)
            1           2           3           4           5           6
    1   0.0114379   0.0132744  -0.0102874  -0.0053814  -0.0035159  -0.0043378
    2   0.0135957  -0.0147705   0.0137758  -0.0116386   0.0051740  -0.0149081
    3  -0.0000396   0.0000233   0.0001206  -0.0001529   0.0000353   0.0001195
            7           8           9          10          11          12
    1  -0.0038217   0.0079020  -0.0108108   0.0036653   0.0001647   0.0006597
    2   0.0110258   0.0066708   0.0012871  -0.0092048  -0.0015971   0.0006773
    3  -0.0001149  -0.0000101   0.0000179   0.0001098  -0.0000028   0.0000078
           13          14          15          16
    1   0.0010712  -0.0009815   0.0009523   0.0000091
    2  -0.0000783   0.0013407  -0.0002107  -0.0011390
    3  -0.0000016  -0.0000609  -0.0000134  -0.0000379
 Gradient time:  CPU 39.44 s  wall 9.93 s
 Geometry Optimization Parameters
   NAtoms,    NIC,     NZ,  NCons,   NDum,   NFix, NCnnct, MaxDiis
       16     116       0       0       0       0       0       0

 Cartesian Hessian Update
 Hessian updated using BFGS update


** GEOMETRY OPTIMIZATION IN DELOCALIZED INTERNAL COORDINATES **
   Searching for a Minimum

   Optimization Cycle:   3

                       Coordinates (Angstroms)
     ATOM                X               Y               Z
      1  C         2.1792481821   -0.6980965012   -0.0000853661
      2  C         2.1308096979    0.6901895166    0.0000472755
      3  C         0.8959845957    1.4182999760   -0.0000388953
      4  C        -0.2507922147    0.6576748644   -0.0001500293
      5  C        -0.2329382773   -0.7573336745   -0.0000378987
      6  C         0.9964641383   -1.4612263262    0.0000200514
      7  N        -1.5905266311    1.0673291350    0.0000259601
      8  C        -1.5799762064   -1.1570829306    0.0000890841
      9  C        -2.3868638709    0.0221931144   -0.0001686267
     10  H        -1.9263039762    2.0478924215    0.0009966384
     11  H        -1.9620269230   -2.1727710809    0.0000913832
     12  H        -3.4635436414    0.1499775180   -0.0001647250
     13  H         3.0615619329    1.2501598241    0.0000917648
     14  H         0.8662729955    2.5014023245   -0.0001322634
     15  H         3.1425692717   -1.1994891478   -0.0001237109
     16  H         1.0231558782   -2.5465665407    0.0000653391
   Point Group: c1    Number of degrees of freedom:    42


   Energy is   -363.437842628

 Hessian updated using BFGS update

 41 Hessian modes will be used to form the next step
  Hessian Eigenvalues:
     0.018593    0.019738    0.020011    0.020794    0.021683    0.022200
     0.022636    0.023004    0.023236    0.023608    0.023851    0.023984
     0.024127    0.157608    0.160000    0.160000    0.160000    0.160053
     0.161132    0.220015    0.223587    0.229427    0.235675    0.246502
     0.346673    0.357180    0.357552    0.357882    0.358062    0.364769
     0.367179    0.377493    0.388145    0.426983    0.436997    0.462764
     0.469239    0.476256    0.485140    0.521282    0.608811

 Minimum search - taking simple RFO step
 Searching for Lamda that Minimizes Along All modes
 Value Taken    Lamda =  -0.00214988
 Step Taken.  Stepsize is  0.074343

                             Maximum     Tolerance    Cnvgd?
         Gradient           0.011861      0.000300      NO
         Displacement       0.030818      0.001200      NO
         Energy change     -0.003599      0.000001      NO


 New Cartesian Coordinates Obtained by Inverse Iteration

 Displacement from previous Coordinates is:  0.095416
 ----------------------------------------------------------------
             Standard Nuclear Orientation (Angstroms)
    I     Atom           X                Y                Z
 ----------------------------------------------------------------
    1      C       2.1655364484    -0.6981077886    -0.0004013782
    2      C       2.1239663599     0.6949025156    -0.0001960591
    3      C       0.9034270060     1.4159476967     0.0002090825
    4      C      -0.2421447329     0.6644347371     0.0007771004
    5      C      -0.2345482943    -0.7564276884     0.0001321399
    6      C       0.9908653032    -1.4490185865    -0.0006254802
    7      N      -1.5836129832     1.0645129957     0.0003899677
    8      C      -1.5784631098    -1.1712763703     0.0007291716
    9      C      -2.3716958593     0.0177748813     0.0001925041
   10      H      -1.9339683823     2.0541045750    -0.0010830596
   11      H      -1.9660718318    -2.1829252746     0.0005294852
   12      H      -3.4503054152     0.1429116334    -0.0005724621
   13      H       3.0532584386     1.2555878305    -0.0000187339
   14      H       0.8838965381     2.4976283483     0.0010238473
   15      H       3.1250017653    -1.2044902521    -0.0002986747
   16      H       1.0179537005    -2.5330067604    -0.0002614698
 ----------------------------------------------------------------
 Molecular Point Group                 C1    NOp =  1
 Largest Abelian Subgroup              C1    NOp =  1
 Nuclear Repulsion Energy =         400.98536341 hartrees
 There are       31 alpha and       31 beta electrons
 Applying Cartesian multipole field
    Component          Value
    ---------          -----
     (2,0,0)        1.00000E-11
     (0,2,0)        2.00000E-11
     (0,0,2)       -3.00000E-11
 Nucleus-field energy     =     0.0000000117 hartrees
 Requested basis set is 6-31+G(d)
 There are 59 shells and 185 basis functions
 A cutoff of  1.0D-12 yielded   1657 shell pairs
 There are     17105 function pairs
 Smallest overlap matrix eigenvalue = 1.19E-06
 Guess MOs from SCF MO coefficient file

 -----------------------------------------------------------------------
  General SCF calculation program by
  Eric Jon Sundstrom, Paul Horn, Yuezhi Mao, Dmitri Zuev, Alec White,
  David Stuck, Shaama M.S., Shane Yost, Joonho Lee, David Small,
  Daniel Levine, Susi Lehtola, Hugh Burton, Evgeny Epifanovsky,
  Bang C. Huynh
 -----------------------------------------------------------------------
 Exchange:     0.1900 Hartree-Fock + 0.3500 B88 + 0.4600 muB88 + LR-HF
 Correlation:  0.1900 VWN5 + 0.8100 LYP
 Using SG-1 standard quadrature grid
 using 4 threads for integral computing
 -------------------------------------------------------
 OpenMP Integral computing Module                
 Release: version 1.0, May 2013, Q-Chem Inc. Pittsburgh 
 -------------------------------------------------------
 using 4 threads for integral computing
 -------------------------------------------------------
 OpenMP Integral computing Module                
 Release: version 1.0, May 2013, Q-Chem Inc. Pittsburgh 
 -------------------------------------------------------
 A restricted SCF calculation will be
 performed using DIIS
 SCF converges when DIIS error is below 1.0e-08
 ---------------------------------------
  Cycle       Energy         DIIS error
 ---------------------------------------
    1    -363.6133670035      3.76e-04  
    2    -363.6140106373      7.66e-05  
    3    -363.6140203690      7.09e-05  
    4    -363.6140418304      1.15e-05  
    5    -363.6140424891      5.19e-06  
    6    -363.6140426583      1.48e-06  
    7    -363.6140426812      6.33e-07  
    8    -363.6140426881      2.12e-07  
    9    -363.6140426888      1.26e-07  
   10    -363.6140426889      3.18e-08  
   11    -363.6140426889      1.34e-08  
   12    -363.6140426889      3.41e-09  Convergence criterion met
 ---------------------------------------
 SCF time:   CPU 49.47s  wall 12.00s 
 SCF   energy in the final basis set =     -363.6140426889
 Total energy in the final basis set =     -363.6140426889
 
 Direct TDDFT/TDA calculation will be performed
 Exchange:     0.1900 Hartree-Fock + 0.3500 B88 + 0.4600 muB88 + LR-HF
 Correlation:  0.1900 VWN5 + 0.8100 LYP
 Using SG-1 standard quadrature grid
 Singlet excitation energies requested
 CIS energy converged when residual is below 10e- 6
 ---------------------------------------------------
 Iter    Rts Conv    Rts Left    Ttl Dev     Max Dev
 ---------------------------------------------------
   1         0           3      0.002309    0.001746
   2         0           3      0.000531    0.000378
   3         0           3      0.000272    0.000176
   4         0           3      0.000151    0.000081
   5         0           3      0.000084    0.000039
   6         0           3      0.000097    0.000047
   7         0           3      0.000634    0.000592
   8         1           2      0.000269    0.000246
   9         1           2      0.000118    0.000108
  10         1           2      0.000051    0.000047
  11         1           2      0.000019    0.000017
  12         2           1      0.000007    0.000006
  13         2           1      0.000003    0.000003
  14         3           0      0.000001    0.000001    Roots Converged
 ---------------------------------------------------
 
 ---------------------------------------------------
         TDDFT/TDA Excitation Energies              
 ---------------------------------------------------

 Excited state   1: excitation energy (eV) =    4.7596
 Total energy for state  1:                  -363.43913166 au
    Multiplicity: Singlet
    Trans. Mom.:  0.0074 X  -0.0057 Y   0.1578 Z
    Strength   :     0.0029146284
    D(   31) --> V(    1) amplitude =  0.9787

 Excited state   2: excitation energy (eV) =    4.8421
 Total energy for state  2:                  -363.43610002 au
    Multiplicity: Singlet
    Trans. Mom.:  1.0613 X  -0.7056 Y  -0.0015 Z
    Strength   :     0.1926773100
    D(   30) --> V(    6) amplitude = -0.2322
    D(   31) --> V(    2) amplitude =  0.9227

 Excited state   3: excitation energy (eV) =    5.1312
 Total energy for state  3:                  -363.42547463 au
    Multiplicity: Singlet
    Trans. Mom.: -0.2248 X   0.2351 Y   0.0001 Z
    Strength   :     0.0132990379
    D(   30) --> V(    2) amplitude =  0.7006
    D(   31) --> V(    6) amplitude =  0.6428
 
 ---------------------------------------------------
 Calculating Relaxed Density
 ---------------------------------------------------
 Iter    Rts Conv    Rts Left    Ttl Dev     Max Dev
 ---------------------------------------------------
   1         0           3      0.001089    0.000544
   2         0           3      0.000417    0.000206
   3         0           3      0.000122    0.000051
   4         0           3      0.000038    0.000018
   5         0           3      0.000010    0.000005
   6         3           0      0.000000    0.000000    Roots Converged
 ---------------------------------------------------
  SETman timing summary (seconds)
  CPU time               215.46s
  System time              0.00s
  Wall time               54.17s
 
 --------------------------------------------------------------
 
                    Orbital Energies (a.u.)
 --------------------------------------------------------------
 
 Alpha MOs
 -- Occupied --
-14.4670 -10.3017 -10.2946 -10.2679 -10.2605 -10.2600 -10.2599 -10.2567
-10.2493  -1.0795  -0.9280  -0.8611  -0.8259  -0.7889  -0.7059  -0.6712
 -0.6569  -0.6158  -0.5532  -0.5433  -0.5115  -0.5030  -0.5026  -0.4714
 -0.4558  -0.4183  -0.4070  -0.4044  -0.3387  -0.2870  -0.2450
 -- Virtual --
  0.0200   0.0210   0.0426   0.0485   0.0620   0.0636   0.0640   0.0808
  0.0855   0.0903   0.0909   0.0928   0.1135   0.1187   0.1304   0.1316
  0.1398   0.1548   0.1642   0.1665   0.1795   0.1860   0.1924   0.1985
  0.2039   0.2134   0.2194   0.2198   0.2275   0.2356   0.2402   0.2493
  0.2510   0.2590   0.2663   0.2700   0.2701   0.2786   0.2874   0.2958
  0.3078   0.3080   0.3247   0.3389   0.3442   0.3566   0.3657   0.3815
  0.4000   0.4133   0.4264   0.4522   0.4908   0.5064   0.5757   0.6423
  0.6806   0.7291   0.7301   0.7531   0.7764   0.7783   0.7885   0.7907
  0.8021   0.8125   0.8267   0.8334   0.8499   0.8546   0.8764   0.9119
  0.9427   0.9524   0.9651   0.9971   1.0024   1.0137   1.0171   1.0439
  1.0626   1.0806   1.0981   1.1048   1.1502   1.1741   1.1829   1.2377
  1.2430   1.2704   1.2830   1.3107   1.3110   1.3904   1.3943   1.4226
  1.4304   1.4782   1.4919   1.5105   1.5418   1.5455   1.5719   1.5790
  1.6078   1.6471   1.7204   1.8427   1.9066   1.9578   1.9752   1.9861
  2.0095   2.0614   2.0708   2.0888   2.1323   2.1637   2.2209   2.2393
  2.2469   2.2633   2.3193   2.3325   2.3586   2.3785   2.4006   2.4608
  2.5003   2.5355   2.6051   2.6459   2.7094   2.7256   2.7484   2.7644
  2.8088   2.8840   2.9169   2.9286   3.0279   3.0613   3.1784   3.3216
  3.5198   4.2234   4.3211   4.3551   4.3790   4.4270   4.4665   4.5471
  4.5878   4.8558
 --------------------------------------------------------------
 
          Ground-State Mulliken Net Atomic Charges

     Atom                 Charge (a.u.)
  ----------------------------------------
      1 C                    -0.006173
      2 C                    -0.424587
      3 C                    -0.197366
      4 C                    -0.759313
      5 C                     1.160315
      6 C                    -0.620382
      7 N                    -0.476607
      8 C                     0.022517
      9 C                    -0.242783
     10 H                     0.420302
     11 H                     0.192218
     12 H                     0.198130
     13 H                     0.177862
     14 H                     0.185624
     15 H                     0.180915
     16 H                     0.189328
  ----------------------------------------
  Sum of atomic charges =     0.000000

 -----------------------------------------------------------------
                    Cartesian Multipole Moments
 -----------------------------------------------------------------
    Charge (ESU x 10^10)
                -0.0000
    Dipole Moment (Debye)
         X      -1.6033      Y       1.8959      Z      -0.0019
       Tot       2.4830
    Quadrupole Moments (Debye-Ang)
        XX     -45.6342     XY      -4.3029     YY     -44.6321
        XZ       0.0099     YZ      -0.0034     ZZ     -59.1421
    Octopole Moments (Debye-Ang^2)
       XXX     -16.3505    XXY      10.2224    XYY      -8.4616
       YYY      12.4232    XXZ      -0.0231    XYZ       0.0117
       YYZ      -0.0099    XZZ      -2.1210    YZZ       2.6169
       ZZZ      -0.0203
    Hexadecapole Moments (Debye-Ang^3)
      XXXX    -819.4271   XXXY     -24.5364   XXYY    -197.2259
      XYYY     -17.7652   YYYY    -374.5625   XXXZ       0.1325
      XXYZ      -0.0282   XYYZ       0.0518   YYYZ      -0.0345
      XXZZ    -190.4994   XYZZ      -2.8593   YYZZ     -95.5502
      XZZZ       0.0815   YZZZ      -0.0252   ZZZZ     -75.3482
 -----------------------------------------------------------------
 Calculating analytic gradient of the CIS energy
 CIS relaxed dipole moment
            1
    1  -1.7587621
    2   0.6856435
    3  -0.0087520
	Magnitude:	 1.888 au	 4.798 Debye
 CIS 2 State Energy is -363.4361000164
 Gradient of the state energy (including CIS Excitation Energy)
            1           2           3           4           5           6
    1  -0.0131148  -0.0132686  -0.0060917   0.0094650   0.0096629   0.0021548
    2  -0.0151992   0.0108294  -0.0251302   0.0227751  -0.0136152   0.0227325
    3   0.0000213  -0.0000405  -0.0000647   0.0001432  -0.0001026  -0.0001068
            7           8           9          10          11          12
    1  -0.0039656   0.0001626   0.0325728  -0.0132501   0.0000689  -0.0027478
    2  -0.0452111  -0.0062886   0.0217363   0.0279958  -0.0018560   0.0035239
    3   0.0001269   0.0001155  -0.0000464  -0.0001232  -0.0000105  -0.0000266
           13          14          15          16
    1  -0.0006934  -0.0009872  -0.0006343   0.0006667
    2  -0.0000192  -0.0021226  -0.0007197   0.0005688
    3   0.0000070   0.0000445   0.0000222   0.0000406
 Gradient time:  CPU 39.09 s  wall 9.83 s
 Geometry Optimization Parameters
   NAtoms,    NIC,     NZ,  NCons,   NDum,   NFix, NCnnct, MaxDiis
       16     116       0       0       0       0       0       0

 Cartesian Hessian Update
 Hessian updated using BFGS update


** GEOMETRY OPTIMIZATION IN DELOCALIZED INTERNAL COORDINATES **
   Searching for a Minimum

   Optimization Cycle:   4

                       Coordinates (Angstroms)
     ATOM                X               Y               Z
      1  C         2.1655364484   -0.6981077886   -0.0004013782
      2  C         2.1239663599    0.6949025156   -0.0001960591
      3  C         0.9034270060    1.4159476967    0.0002090825
      4  C        -0.2421447329    0.6644347371    0.0007771004
      5  C        -0.2345482943   -0.7564276884    0.0001321399
      6  C         0.9908653032   -1.4490185865   -0.0006254802
      7  N        -1.5836129832    1.0645129957    0.0003899677
      8  C        -1.5784631098   -1.1712763703    0.0007291716
      9  C        -2.3716958593    0.0177748813    0.0001925041
     10  H        -1.9339683823    2.0541045750   -0.0010830596
     11  H        -1.9660718318   -2.1829252746    0.0005294852
     12  H        -3.4503054152    0.1429116334   -0.0005724621
     13  H         3.0532584386    1.2555878305   -0.0000187339
     14  H         0.8838965381    2.4976283483    0.0010238473
     15  H         3.1250017653   -1.2044902521   -0.0002986747
     16  H         1.0179537005   -2.5330067604   -0.0002614698
   Point Group: c1    Number of degrees of freedom:    42


   Energy is   -363.436100016

 Hessian updated using BFGS update

 41 Hessian modes will be used to form the next step
  Hessian Eigenvalues:
     0.018594    0.019738    0.020011    0.020794    0.021684    0.022201
     0.022636    0.023005    0.023236    0.023609    0.023851    0.023984
     0.024128    0.153566    0.159924    0.160000    0.160000    0.160251
     0.160606    0.217712    0.221046    0.229321    0.236533    0.247864
     0.350446    0.357216    0.357489    0.357868    0.359942    0.364542
     0.369366    0.381450    0.385498    0.428011    0.437160    0.462152
     0.469028    0.474032    0.485218    0.493403    1.614289

 Minimum search - taking simple RFO step
 Searching for Lamda that Minimizes Along All modes
 Value Taken    Lamda =  -0.00269956
 Step Taken.  Stepsize is  0.051865

                             Maximum     Tolerance    Cnvgd?
         Gradient           0.023143      0.000300      NO
         Displacement       0.025387      0.001200      NO
         Energy change      0.001743      0.000001      NO


 New Cartesian Coordinates Obtained by Inverse Iteration

 Displacement from previous Coordinates is:  0.076551
 ----------------------------------------------------------------
             Standard Nuclear Orientation (Angstroms)
    I     Atom           X                Y                Z
 ----------------------------------------------------------------
    1      C       2.1642481379    -0.6945699188    -0.0002183392
    2      C       2.1289058599     0.6989441684    -0.0000949292
    3      C       0.9121912221     1.4229133579    -0.0000193496
    4      C      -0.2409633387     0.6654391158     0.0004971813
    5      C      -0.2393786927    -0.7529241014     0.0001019127
    6      C       0.9875368353    -1.4477097318    -0.0004309067
    7      N      -1.5821659064     1.0647134241     0.0003767980
    8      C      -1.5870415858    -1.1699165226     0.0003684381
    9      C      -2.3824490548     0.0089261093     0.0002132315
   10      H      -1.9190174004     2.0449618738    -0.0006175926
   11      H      -1.9728688078    -2.1805566905     0.0002043454
   12      H      -3.4597967045     0.1239818667    -0.0001831081
   13      H       3.0601243271     1.2558409640     0.0000542416
   14      H       0.8975632870     2.5050735864     0.0006181584
   15      H       3.1231084522    -1.2012046015    -0.0001544234
   16      H       1.0130983211    -2.5313604074    -0.0001896771
 ----------------------------------------------------------------
 Molecular Point Group                 C1    NOp =  1
 Largest Abelian Subgroup              C1    NOp =  1
 Nuclear Repulsion Energy =         400.47109841 hartrees
 There are       31 alpha and       31 beta electrons
 Applying Cartesian multipole field
    Component          Value
    ---------          -----
     (2,0,0)        1.00000E-11
     (0,2,0)        2.00000E-11
     (0,0,2)       -3.00000E-11
 Nucleus-field energy     =     0.0000000117 hartrees
 Requested basis set is 6-31+G(d)
 There are 59 shells and 185 basis functions
 A cutoff of  1.0D-12 yielded   1657 shell pairs
 There are     17105 function pairs
 Smallest overlap matrix eigenvalue = 1.23E-06
 Guess MOs from SCF MO coefficient file

 -----------------------------------------------------------------------
  General SCF calculation program by
  Eric Jon Sundstrom, Paul Horn, Yuezhi Mao, Dmitri Zuev, Alec White,
  David Stuck, Shaama M.S., Shane Yost, Joonho Lee, David Small,
  Daniel Levine, Susi Lehtola, Hugh Burton, Evgeny Epifanovsky,
  Bang C. Huynh
 -----------------------------------------------------------------------
 Exchange:     0.1900 Hartree-Fock + 0.3500 B88 + 0.4600 muB88 + LR-HF
 Correlation:  0.1900 VWN5 + 0.8100 LYP
 Using SG-1 standard quadrature grid
 using 4 threads for integral computing
 -------------------------------------------------------
 OpenMP Integral computing Module                
 Release: version 1.0, May 2013, Q-Chem Inc. Pittsburgh 
 -------------------------------------------------------
 using 4 threads for integral computing
 -------------------------------------------------------
 OpenMP Integral computing Module                
 Release: version 1.0, May 2013, Q-Chem Inc. Pittsburgh 
 -------------------------------------------------------
 A restricted SCF calculation will be
 performed using DIIS
 SCF converges when DIIS error is below 1.0e-08
 ---------------------------------------
  Cycle       Energy         DIIS error
 ---------------------------------------
    1    -363.6170143467      2.62e-04  
    2    -363.6173632958      5.70e-05  
    3    -363.6173743250      4.65e-05  
    4    -363.6173823467      1.40e-05  
    5    -363.6173833070      4.58e-06  
    6    -363.6173834675      2.62e-06  
    7    -363.6173835218      4.59e-07  
    8    -363.6173835244      3.21e-07  
    9    -363.6173835250      6.16e-08  
   10    -363.6173835250      2.64e-08  
   11    -363.6173835250      7.12e-09  Convergence criterion met
 ---------------------------------------
 SCF time:   CPU 44.50s  wall 12.00s 
 SCF   energy in the final basis set =     -363.6173835250
 Total energy in the final basis set =     -363.6173835250
 
 Direct TDDFT/TDA calculation will be performed
 Exchange:     0.1900 Hartree-Fock + 0.3500 B88 + 0.4600 muB88 + LR-HF
 Correlation:  0.1900 VWN5 + 0.8100 LYP
 Using SG-1 standard quadrature grid
 Singlet excitation energies requested
 CIS energy converged when residual is below 10e- 6
 ---------------------------------------------------
 Iter    Rts Conv    Rts Left    Ttl Dev     Max Dev
 ---------------------------------------------------
   1         0           3      0.002309    0.001746
   2         0           3      0.000534    0.000380
   3         0           3      0.000277    0.000177
   4         0           3      0.000158    0.000080
   5         0           3      0.000094    0.000050
   6         0           3      0.000085    0.000042
   7         0           3      0.000733    0.000691
   8         0           3      0.000340    0.000310
   9         1           2      0.000163    0.000147
  10         1           2      0.000065    0.000059
  11         1           2      0.000022    0.000020
  12         2           1      0.000008    0.000007
  13         2           1      0.000003    0.000003
  14         2           1      0.000001    0.000001
  15         3           0      0.000001    0.000000    Roots Converged
 ---------------------------------------------------
 
 ---------------------------------------------------
         TDDFT/TDA Excitation Energies              
 ---------------------------------------------------

 Excited state   1: excitation energy (eV) =    4.8654
 Total energy for state  1:                  -363.43858153 au
    Multiplicity: Singlet
    Trans. Mom.:  0.0459 X  -0.0323 Y   0.1648 Z
    Strength   :     0.0036133485
    D(   31) --> V(    2) amplitude =  0.9761

 Excited state   2: excitation energy (eV) =    4.8755
 Total energy for state  2:                  -363.43821383 au
    Multiplicity: Singlet
    Trans. Mom.: -1.0194 X   0.7065 Y   0.0076 Z
    Strength   :     0.1837563428
    D(   30) --> V(    6) amplitude = -0.2363
    D(   31) --> V(    1) amplitude =  0.9211

 Excited state   3: excitation energy (eV) =    5.1190
 Total energy for state  3:                  -363.42926433 au
    Multiplicity: Singlet
    Trans. Mom.:  0.1039 X  -0.2774 Y   0.0001 Z
    Strength   :     0.0110073558
    D(   30) --> V(    1) amplitude =  0.7241
    D(   31) --> V(    6) amplitude =  0.6156
 
 ---------------------------------------------------
 Calculating Relaxed Density
 ---------------------------------------------------
 Iter    Rts Conv    Rts Left    Ttl Dev     Max Dev
 ---------------------------------------------------
   1         0           3      0.001075    0.000536
   2         0           3      0.000416    0.000207
   3         0           3      0.000121    0.000051
   4         0           3      0.000038    0.000018
   5         0           3      0.000010    0.000005
   6         3           0      0.000000    0.000000    Roots Converged
 ---------------------------------------------------
  SETman timing summary (seconds)
  CPU time               219.95s
  System time              0.00s
  Wall time               55.31s
 
 --------------------------------------------------------------
 
                    Orbital Energies (a.u.)
 --------------------------------------------------------------
 
 Alpha MOs
 -- Occupied --
-14.4648 -10.3017 -10.2957 -10.2689 -10.2616 -10.2609 -10.2605 -10.2571
-10.2500  -1.0758  -0.9268  -0.8615  -0.8240  -0.7907  -0.7054  -0.6716
 -0.6564  -0.6156  -0.5538  -0.5436  -0.5106  -0.5024  -0.5003  -0.4726
 -0.4574  -0.4180  -0.4058  -0.4054  -0.3386  -0.2855  -0.2474
 -- Virtual --
  0.0201   0.0214   0.0426   0.0483   0.0620   0.0632   0.0638   0.0806
  0.0855   0.0903   0.0909   0.0932   0.1132   0.1186   0.1303   0.1315
  0.1400   0.1548   0.1654   0.1664   0.1802   0.1856   0.1929   0.1985
  0.2041   0.2139   0.2192   0.2196   0.2277   0.2355   0.2401   0.2491
  0.2508   0.2589   0.2659   0.2698   0.2698   0.2787   0.2881   0.2960
  0.3079   0.3083   0.3241   0.3383   0.3453   0.3562   0.3645   0.3799
  0.3983   0.4125   0.4263   0.4492   0.4904   0.5060   0.5730   0.6414
  0.6785   0.7290   0.7299   0.7538   0.7757   0.7781   0.7880   0.7908
  0.8002   0.8119   0.8227   0.8331   0.8496   0.8524   0.8744   0.9113
  0.9438   0.9524   0.9649   0.9965   1.0022   1.0127   1.0177   1.0426
  1.0615   1.0846   1.1032   1.1047   1.1500   1.1744   1.1826   1.2350
  1.2423   1.2697   1.2830   1.3106   1.3110   1.3901   1.3919   1.4214
  1.4289   1.4763   1.4891   1.5083   1.5420   1.5450   1.5712   1.5776
  1.6058   1.6460   1.7157   1.8494   1.9068   1.9584   1.9736   1.9845
  2.0071   2.0641   2.0694   2.0871   2.1298   2.1603   2.2193   2.2421
  2.2481   2.2581   2.3207   2.3285   2.3544   2.3687   2.3926   2.4577
  2.4925   2.5331   2.6042   2.6414   2.7062   2.7260   2.7435   2.7606
  2.8079   2.8801   2.9144   2.9265   3.0274   3.0572   3.1765   3.3173
  3.5131   4.2209   4.3203   4.3541   4.3797   4.4249   4.4662   4.5454
  4.5870   4.8530
 --------------------------------------------------------------
 
          Ground-State Mulliken Net Atomic Charges

     Atom                 Charge (a.u.)
  ----------------------------------------
      1 C                    -0.007899
      2 C                    -0.416706
      3 C                    -0.195893
      4 C                    -0.758447
      5 C                     1.153822
      6 C                    -0.630363
      7 N                    -0.491475
      8 C                     0.041722
      9 C                    -0.241699
     10 H                     0.419963
     11 H                     0.192451
     12 H                     0.199383
     13 H                     0.178546
     14 H                     0.186432
     15 H                     0.180565
     16 H                     0.189598
  ----------------------------------------
  Sum of atomic charges =     0.000000

 -----------------------------------------------------------------
                    Cartesian Multipole Moments
 -----------------------------------------------------------------
    Charge (ESU x 10^10)
                -0.0000
    Dipole Moment (Debye)
         X      -1.5537      Y       1.8187      Z      -0.0010
       Tot       2.3920
    Quadrupole Moments (Debye-Ang)
        XX     -45.5896     XY      -4.0062     YY     -44.6610
        XZ       0.0062     YZ      -0.0018     ZZ     -59.1615
    Octopole Moments (Debye-Ang^2)
       XXX     -16.2059    XXY       9.7327    XYY      -8.0985
       YYY      11.9726    XXZ      -0.0127    XYZ       0.0075
       YYZ      -0.0065    XZZ      -2.0460    YZZ       2.4764
       ZZZ      -0.0133
    Hexadecapole Moments (Debye-Ang^3)
      XXXX    -820.7261   XXXY     -23.8285   XXYY    -198.3690
      XYYY     -18.2296   YYYY    -374.6864   XXXZ       0.0858
      XXYZ      -0.0164   XYYZ       0.0361   YYYZ      -0.0207
      XXZZ    -191.0966   XYZZ      -3.2817   YYZZ     -95.5513
      XZZZ       0.0574   YZZZ      -0.0181   ZZZZ     -75.3579
 -----------------------------------------------------------------
 Calculating analytic gradient of the CIS energy
 CIS relaxed dipole moment
            1
    1  -1.7609976
    2   0.6500238
    3  -0.0521210
	Magnitude:	 1.878 au	 4.773 Debye
 CIS 2 State Energy is -363.4382138319
 Gradient of the state energy (including CIS Excitation Energy)
            1           2           3           4           5           6
    1  -0.0119417  -0.0132311   0.0022896   0.0057804   0.0080701   0.0019830
    2  -0.0139583   0.0125185  -0.0202669   0.0180140  -0.0101716   0.0200033
    3   0.0001023  -0.0000399  -0.0004094   0.0004024  -0.0001387  -0.0004262
            7           8           9          10          11          12
    1   0.0025189  -0.0048343   0.0212027  -0.0086886   0.0000168  -0.0015941
    2  -0.0281764  -0.0050079   0.0078403   0.0192518  -0.0005518   0.0017095
    3   0.0005067   0.0002459  -0.0002544  -0.0003332  -0.0000063  -0.0000503
           13          14          15          16
    1  -0.0008957  -0.0002019  -0.0008073   0.0003333
    2  -0.0000108  -0.0016451  -0.0002880   0.0007393
    3   0.0000060   0.0002028   0.0000502   0.0001421
 Gradient time:  CPU 40.01 s  wall 10.06 s
 Geometry Optimization Parameters
   NAtoms,    NIC,     NZ,  NCons,   NDum,   NFix, NCnnct, MaxDiis
       16     116       0       0       0       0       0       0

 Cartesian Hessian Update
 Hessian updated using BFGS update


** GEOMETRY OPTIMIZATION IN DELOCALIZED INTERNAL COORDINATES **
   Searching for a Minimum

   Optimization Cycle:   5

                       Coordinates (Angstroms)
     ATOM                X               Y               Z
      1  C         2.1642481379   -0.6945699188   -0.0002183392
      2  C         2.1289058599    0.6989441684   -0.0000949292
      3  C         0.9121912221    1.4229133579   -0.0000193496
[...]
           13          14          15          16
    1   0.0000194   0.0000147   0.0000133  -0.0000061
    2   0.0000140   0.0001001   0.0000073  -0.0000118
    3   0.0000511   0.0024262   0.0005617   0.0016426
 Gradient time:  CPU 38.89 s  wall 9.77 s
 Geometry Optimization Parameters
   NAtoms,    NIC,     NZ,  NCons,   NDum,   NFix, NCnnct, MaxDiis
       16     116       0       0       0       0       0       0

 Cartesian Hessian Update
 Hessian updated using BFGS update


** GEOMETRY OPTIMIZATION IN DELOCALIZED INTERNAL COORDINATES **
   Searching for a Minimum

   Optimization Cycle:  49

                       Coordinates (Angstroms)
     ATOM                X               Y               Z
      1  C         2.1690105590   -0.6969123377   -0.0033346927
      2  C         2.1288632930    0.6970616671   -0.0025579996
      3  C         0.9090228838    1.4215548331    0.0004388237
      4  C        -0.2446147047    0.6627225070    0.0075335927
      5  C        -0.2376303659   -0.7532845766    0.0035697856
      6  C         0.9921419033   -1.4525757092   -0.0041902194
      7  N        -1.5868101922    1.0668047646    0.0074761994
      8  C        -1.5852106609   -1.1640840101    0.0049260510
      9  C        -2.3855023197    0.0135511047    0.0010975845
     10  H        -1.9202177106    2.0445913822   -0.0152913586
     11  H        -1.9715277932   -2.1751045269    0.0033883967
     12  H        -3.4627470635    0.1271239456   -0.0076399078
     13  H         3.0608637192    1.2534316386   -0.0025671765
     14  H         0.8899809990    2.5042102027    0.0113355781
     15  H         3.1303953790   -1.1997402859   -0.0034710313
     16  H         1.0170770256   -2.5367981066   -0.0001876448
   Point Group: c1    Number of degrees of freedom:    42


   Energy is   -363.438231169

 Hessian updated using BFGS update

 42 Hessian modes will be used to form the next step
  Hessian Eigenvalues:
     0.012738    0.020031    0.020630    0.021384    0.022585    0.022651
     0.023155    0.023245    0.023797    0.024027    0.024260    0.027941
     0.039014    0.157639    0.159978    0.160005    0.160027    0.160362
     0.160723    0.163684    0.220464    0.231084    0.238414    0.244976
     0.250198    0.357214    0.357853    0.357948    0.360798    0.364564
     0.365557    0.377197    0.386236    0.430238    0.441185    0.469905
     0.470388    0.473620    0.485663    0.546122    0.575468    5.918430

 Minimum search - taking simple RFO step
 Searching for Lamda that Minimizes Along All modes
 Value Taken    Lamda =  -0.00179727
 Calculated Step too Large.  Step scaled by  0.915424
 Step Taken.  Stepsize is  0.300000

                             Maximum     Tolerance    Cnvgd?
         Gradient           0.003493      0.000300      NO
         Displacement       0.166938      0.001200      NO
         Energy change     -0.001177      0.000001      NO


 New Cartesian Coordinates Obtained by Inverse Iteration

 Displacement from previous Coordinates is:  0.220863
 ----------------------------------------------------------------
             Standard Nuclear Orientation (Angstroms)
    I     Atom           X                Y                Z
 ----------------------------------------------------------------
    1      C       2.1682551418    -0.6967294384     0.0124309025
    2      C       2.1278322082     0.6972551835     0.0098758147
    3      C       0.9085047514     1.4214746294    -0.0003191652
    4      C      -0.2449957330     0.6626103832    -0.0272315437
    5      C      -0.2377172188    -0.7533031636    -0.0121396259
    6      C       0.9913547098    -1.4520276785     0.0171153462
    7      N      -1.5867296566     1.0672071274    -0.0257380807
    8      C      -1.5847616952    -1.1640217352    -0.0209594055
    9      C      -2.3843388627     0.0137147723    -0.0019836296
   10      H      -1.9186177327     2.0429339655     0.0532396689
   11      H      -1.9710741681    -2.1749814945    -0.0156802342
   12      H      -3.4609990359     0.1271686706     0.0313002420
   13      H       3.0597799905     1.2536493072     0.0084376936
   14      H       0.8904678260     2.5030906606    -0.0400374816
   15      H       3.1297066061    -1.1993891329     0.0109359633
   16      H       1.0164278207    -2.5360995641     0.0012795163
 ----------------------------------------------------------------
 Molecular Point Group                 C1    NOp =  1
 Largest Abelian Subgroup              C1    NOp =  1
 Nuclear Repulsion Energy =         400.35196222 hartrees
 There are       31 alpha and       31 beta electrons
 Applying Cartesian multipole field
    Component          Value
    ---------          -----
     (2,0,0)        1.00000E-11
     (0,2,0)        2.00000E-11
     (0,0,2)       -3.00000E-11
 Nucleus-field energy     =     0.0000000117 hartrees
 Requested basis set is 6-31+G(d)
 There are 59 shells and 185 basis functions
 A cutoff of  1.0D-12 yielded   1657 shell pairs
 There are     17105 function pairs
 Smallest overlap matrix eigenvalue = 1.29E-06
 Guess MOs from SCF MO coefficient file

 -----------------------------------------------------------------------
  General SCF calculation program by
  Eric Jon Sundstrom, Paul Horn, Yuezhi Mao, Dmitri Zuev, Alec White,
  David Stuck, Shaama M.S., Shane Yost, Joonho Lee, David Small,
  Daniel Levine, Susi Lehtola, Hugh Burton, Evgeny Epifanovsky,
  Bang C. Huynh
 -----------------------------------------------------------------------
 Exchange:     0.1900 Hartree-Fock + 0.3500 B88 + 0.4600 muB88 + LR-HF
 Correlation:  0.1900 VWN5 + 0.8100 LYP
 Using SG-1 standard quadrature grid
 using 4 threads for integral computing
 -------------------------------------------------------
 OpenMP Integral computing Module                
 Release: version 1.0, May 2013, Q-Chem Inc. Pittsburgh 
 -------------------------------------------------------
 using 4 threads for integral computing
 -------------------------------------------------------
 OpenMP Integral computing Module                
 Release: version 1.0, May 2013, Q-Chem Inc. Pittsburgh 
 -------------------------------------------------------
 A restricted SCF calculation will be
 performed using DIIS
 SCF converges when DIIS error is below 1.0e-08
 ---------------------------------------
  Cycle       Energy         DIIS error
 ---------------------------------------
    1    -363.6120656793      8.44e-04  
    2    -363.6160757194      1.06e-04  
    3    -363.6162018755      3.71e-05  
    4    -363.6162082344      2.43e-05  
    5    -363.6162107371      9.98e-06  
    6    -363.6162112202      1.63e-06  
    7    -363.6162112368      8.66e-07  
    8    -363.6162112407      2.69e-07  
    9    -363.6162112411      6.17e-08  
   10    -363.6162112411      2.87e-08  
   11    -363.6162112411      5.10e-09  Convergence criterion met
 ---------------------------------------
 SCF time:   CPU 44.11s  wall 11.00s 
 SCF   energy in the final basis set =     -363.6162112411
 Total energy in the final basis set =     -363.6162112411
 
 Direct TDDFT/TDA calculation will be performed
 Exchange:     0.1900 Hartree-Fock + 0.3500 B88 + 0.4600 muB88 + LR-HF
 Correlation:  0.1900 VWN5 + 0.8100 LYP
 Using SG-1 standard quadrature grid
 Singlet excitation energies requested
 CIS energy converged when residual is below 10e- 6
 ---------------------------------------------------
 Iter    Rts Conv    Rts Left    Ttl Dev     Max Dev
 ---------------------------------------------------
   1         0           3      0.002356    0.001735
   2         0           3      0.000587    0.000356
   3         0           3      0.000316    0.000141
   4         0           3      0.000176    0.000062
   5         0           3      0.000105    0.000044
   6         0           3      0.000689    0.000622
   7         0           3      0.000537    0.000482
   8         0           3      0.000229    0.000201
   9         0           3      0.000099    0.000088
  10         0           3      0.000031    0.000028
  11         2           1      0.000010    0.000009
  12         2           1      0.000004    0.000004
  13         2           1      0.000001    0.000001
  14         3           0      0.000001    0.000000    Roots Converged
 ---------------------------------------------------
 
 ---------------------------------------------------
         TDDFT/TDA Excitation Energies              
 ---------------------------------------------------

 Excited state   1: excitation energy (eV) =    4.8135
 Total energy for state  1:                  -363.43931876 au
    Multiplicity: Singlet
    Trans. Mom.: -0.7495 X   0.5295 Y   0.1072 Z
    Strength   :     0.1006583723
    D(   31) --> V(    1) amplitude =  0.8607
    D(   31) --> V(    2) amplitude = -0.3907

 Excited state   2: excitation energy (eV) =    4.8754
 Total energy for state  2:                  -363.43704485 au
    Multiplicity: Singlet
    Trans. Mom.: -0.7123 X   0.4681 Y  -0.1261 Z
    Strength   :     0.0886775172
    D(   31) --> V(    1) amplitude =  0.3444
    D(   31) --> V(    2) amplitude =  0.8906

 Excited state   3: excitation energy (eV) =    5.1145
 Total energy for state  3:                  -363.42825772 au
    Multiplicity: Singlet
    Trans. Mom.:  0.1453 X  -0.2778 Y  -0.0058 Z
    Strength   :     0.0123219996
    D(   30) --> V(    1) amplitude =  0.6850
    D(   30) --> V(    2) amplitude =  0.2127
    D(   31) --> V(    6) amplitude =  0.5777
 
 ---------------------------------------------------
 Calculating Relaxed Density
 ---------------------------------------------------
 Iter    Rts Conv    Rts Left    Ttl Dev     Max Dev
 ---------------------------------------------------
   1         0           3      0.000878    0.000355
   2         0           3      0.000356    0.000155
   3         0           3      0.000104    0.000041
   4         0           3      0.000033    0.000013
   5         0           3      0.000009    0.000004
   6         3           0      0.000000    0.000000    Roots Converged
 ---------------------------------------------------
  SETman timing summary (seconds)
  CPU time               207.81s
  System time              0.00s
  Wall time               52.28s
 
 --------------------------------------------------------------
 
                    Orbital Energies (a.u.)
 --------------------------------------------------------------
 
 Alpha MOs
 -- Occupied --
-14.4648 -10.3015 -10.2956 -10.2695 -10.2625 -10.2613 -10.2608 -10.2579
-10.2496  -1.0767  -0.9267  -0.8613  -0.8246  -0.7899  -0.7055  -0.6720
 -0.6562  -0.6159  -0.5538  -0.5439  -0.5108  -0.5033  -0.4998  -0.4713
 -0.4574  -0.4184  -0.4069  -0.4043  -0.3381  -0.2864  -0.2467
 -- Virtual --
  0.0191   0.0217   0.0426   0.0483   0.0619   0.0629   0.0640   0.0805
  0.0856   0.0902   0.0907   0.0934   0.1128   0.1182   0.1306   0.1317
  0.1401   0.1546   0.1656   0.1659   0.1802   0.1853   0.1929   0.1984
  0.2044   0.2137   0.2190   0.2200   0.2278   0.2354   0.2400   0.2485
  0.2509   0.2590   0.2659   0.2692   0.2696   0.2783   0.2875   0.2956
  0.3076   0.3084   0.3237   0.3380   0.3449   0.3558   0.3640   0.3786
  0.3980   0.4113   0.4241   0.4476   0.4898   0.5050   0.5726   0.6403
  0.6767   0.7249   0.7333   0.7541   0.7757   0.7788   0.7877   0.7915
  0.7996   0.8121   0.8229   0.8326   0.8491   0.8519   0.8734   0.9108
  0.9437   0.9514   0.9642   0.9961   1.0016   1.0124   1.0183   1.0428
  1.0606   1.0831   1.1019   1.1038   1.1496   1.1736   1.1824   1.2325
  1.2392   1.2693   1.2775   1.3056   1.3126   1.3827   1.3900   1.4198
  1.4272   1.4687   1.4820   1.5180   1.5377   1.5478   1.5717   1.5741
  1.6139   1.6531   1.7128   1.8464   1.9040   1.9542   1.9733   1.9800
  2.0087   2.0629   2.0682   2.0896   2.1269   2.1596   2.2168   2.2401
  2.2512   2.2552   2.3198   2.3283   2.3540   2.3702   2.3911   2.4581
  2.4945   2.5342   2.6015   2.6419   2.7042   2.7250   2.7413   2.7597
  2.8066   2.8781   2.9119   2.9248   3.0239   3.0546   3.1741   3.3165
  3.5077   4.2192   4.3186   4.3522   4.3782   4.4242   4.4667   4.5446
  4.5862   4.8516
 --------------------------------------------------------------
 
          Ground-State Mulliken Net Atomic Charges

     Atom                 Charge (a.u.)
  ----------------------------------------
      1 C                    -0.010540
      2 C                    -0.413402
      3 C                    -0.229992
      4 C                    -0.766683
      5 C                     1.182840
      6 C                    -0.604858
      7 N                    -0.486283
      8 C                     0.007286
      9 C                    -0.223744
     10 H                     0.418637
     11 H                     0.191513
     12 H                     0.199582
     13 H                     0.178434
     14 H                     0.186125
     15 H                     0.181144
     16 H                     0.189940
  ----------------------------------------
  Sum of atomic charges =     0.000000

 -----------------------------------------------------------------
                    Cartesian Multipole Moments
 -----------------------------------------------------------------
    Charge (ESU x 10^10)
                -0.0000
    Dipole Moment (Debye)
         X      -1.5412      Y       1.8209      Z       0.1022
       Tot       2.3878
    Quadrupole Moments (Debye-Ang)
        XX     -45.5719     XY      -4.0760     YY     -44.7178
        XZ      -0.4460     YZ       0.2069     ZZ     -59.1660
    Octopole Moments (Debye-Ang^2)
       XXX     -16.0395    XXY       9.7125    XYY      -8.0143
       YYY      11.9455    XXZ       1.1367    XYZ      -0.6087
       YYZ       0.4464    XZZ      -2.0792    YZZ       2.5031
       ZZZ       0.7241
    Hexadecapole Moments (Debye-Ang^3)
      XXXX    -821.1028   XXXY     -23.2841   XXYY    -198.8995
      XYYY     -17.4710   YYYY    -374.9126   XXXZ      -5.2034
      XXYZ       1.2733   XYYZ      -2.2061   YYYZ       1.2488
      XXZZ    -191.3064   XYZZ      -2.9196   YYZZ     -95.5510
      XZZZ      -2.8297   YZZZ       0.7052   ZZZZ     -75.5180
 -----------------------------------------------------------------
 Calculating analytic gradient of the CIS energy
 CIS relaxed dipole moment
            1
    1   0.5945262
    2  -1.0715380
    3   0.5384334
	Magnitude:	 1.338 au	 3.402 Debye
 CIS 2 State Energy is -363.4370448482
 Gradient of the state energy (including CIS Excitation Energy)
            1           2           3           4           5           6
    1  -0.0008503  -0.0018652   0.0004860  -0.0005570   0.0012703  -0.0006365
    2  -0.0014760   0.0014102  -0.0016123   0.0012456  -0.0014573   0.0024101
    3  -0.0019028   0.0005747   0.0075960  -0.0072888   0.0022531   0.0076560
            7           8           9          10          11          12
    1  -0.0002341  -0.0000981   0.0029722  -0.0007176   0.0000732   0.0000644
    2  -0.0031069   0.0000094   0.0013967   0.0016758  -0.0000572   0.0001919
    3  -0.0083210  -0.0045584   0.0047350   0.0052998   0.0001498   0.0008179
           13          14          15          16
    1  -0.0000828   0.0001171  -0.0000361   0.0000944
    2  -0.0000351  -0.0007302   0.0000071   0.0001280
    3  -0.0001199  -0.0035433  -0.0008940  -0.0024542
 Gradient time:  CPU 37.81 s  wall 9.50 s
 Geometry Optimization Parameters
   NAtoms,    NIC,     NZ,  NCons,   NDum,   NFix, NCnnct, MaxDiis
       16     116       0       0       0       0       0       0

 Cartesian Hessian Update
 Hessian updated using BFGS update


** GEOMETRY OPTIMIZATION IN DELOCALIZED INTERNAL COORDINATES **
   Searching for a Minimum

   Optimization Cycle:  50

                       Coordinates (Angstroms)
     ATOM                X               Y               Z
      1  C         2.1682551418   -0.6967294384    0.0124309025
      2  C         2.1278322082    0.6972551835    0.0098758147
      3  C         0.9085047514    1.4214746294   -0.0003191652
      4  C        -0.2449957330    0.6626103832   -0.0272315437
      5  C        -0.2377172188   -0.7533031636   -0.0121396259
      6  C         0.9913547098   -1.4520276785    0.0171153462
      7  N        -1.5867296566    1.0672071274   -0.0257380807
      8  C        -1.5847616952   -1.1640217352   -0.0209594055
      9  C        -2.3843388627    0.0137147723   -0.0019836296
     10  H        -1.9186177327    2.0429339655    0.0532396689
     11  H        -1.9710741681   -2.1749814945   -0.0156802342
     12  H        -3.4609990359    0.1271686706    0.0313002420
     13  H         3.0597799905    1.2536493072    0.0084376936
     14  H         0.8904678260    2.5030906606   -0.0400374816
     15  H         3.1297066061   -1.1993891329    0.0109359633
     16  H         1.0164278207   -2.5360995641    0.0012795163
   Point Group: c1    Number of degrees of freedom:    42


   Energy is   -363.437044848

 Hessian updated using BFGS update

 42 Hessian modes will be used to form the next step
  Hessian Eigenvalues:
     0.019858    0.020289    0.021340    0.021691    0.022591    0.023024
     0.023185    0.023797    0.024015    0.024253    0.025304    0.027966
     0.064310    0.157639    0.159978    0.160005    0.160027    0.160362
     0.160724    0.163692    0.220465    0.231084    0.238418    0.244976
     0.250198    0.357214    0.357853    0.357948    0.360806    0.364564
     0.365561    0.377204    0.386236    0.430241    0.441186    0.469905
     0.470389    0.473621    0.485666    0.546121    0.575882    5.928122

 Minimum search - taking simple RFO step
 Searching for Lamda that Minimizes Along All modes
 Value Taken    Lamda =  -0.00141166
 Step Taken.  Stepsize is  0.170097

                             Maximum     Tolerance    Cnvgd?
         Gradient           0.005240      0.000300      NO
         Displacement       0.095061      0.001200      NO
         Energy change      0.001186      0.000001      NO


 New Cartesian Coordinates Obtained by Inverse Iteration

 Displacement from previous Coordinates is:  0.127173
 ----------------------------------------------------------------
             Standard Nuclear Orientation (Angstroms)
    I     Atom           X                Y                Z
 ----------------------------------------------------------------
    1      C       2.1689483231    -0.6969399238     0.0031232902
    2      C       2.1287922060     0.6970763249     0.0025231618
    3      C       0.9090361173     1.4214750751     0.0000429314
    4      C      -0.2446105248     0.6627500486    -0.0072148984
    5      C      -0.2376210065    -0.7532882632    -0.0035316721
    6      C       0.9921302434    -1.4524834452     0.0040523890
    7      N      -1.5867743181     1.0668029075    -0.0071088269
    8      C      -1.5851706961    -1.1641424935    -0.0047761352
    9      C      -2.3853701934     0.0135455024    -0.0009266539
   10      H      -1.9203376010     2.0446863397     0.0153116265
   11      H      -1.9715053951    -2.1751545196    -0.0033684242
   12      H      -3.4626242757     0.1271473079     0.0075035243
   13      H       3.0607850960     1.2534469552     0.0024831934
   14      H       0.8900275002     2.5041087781    -0.0106863341
   15      H       3.1303249711    -1.1997740251     0.0031330092
   16      H       1.0170645049    -2.5367040762    -0.0000341997
 ----------------------------------------------------------------
 Molecular Point Group                 C1    NOp =  1
 Largest Abelian Subgroup              C1    NOp =  1
 Nuclear Repulsion Energy =         400.27948402 hartrees
 There are       31 alpha and       31 beta electrons


 *******************************************
 **  MAXIMUM OPTIMIZATION CYCLES REACHED  **
 *******************************************

 Q-Chem fatal error occurred in module 0, line  455:

 Maximum optimization cycles reached

