
Running Job 1 of 1 QfuncsPBE0-V-3rd.in
qchem QfuncsPBE0-V-3rd.in_118487.0 /scratch/scaparas/job_3660071/qchem118487/ 0
/cm/shared/apps/spack/cpu/opt/spack/linux-centos8-zen2/gcc-10.2.0/qchem-5.3-5qddma6gy34jvefiv7mbcb7qm253n45r/exe/qcprog.exe_s QfuncsPBE0-V-3rd.in_118487.0 /scratch/scaparas/job_3660071/qchem118487/
                  Welcome to Q-Chem
     A Quantum Leap Into The Future Of Chemistry


 Q-Chem 5.3, Q-Chem, Inc., Pleasanton, CA (2020)

 License issued to: University of California, San Diego (site)

 Yihan Shao,  Zhengting Gan,  E. Epifanovsky,  A. T. B. Gilbert,  M. Wormit,  
 J. Kussmann,  A. W. Lange,  A. Behn,  Jia Deng,  Xintian Feng,  D. Ghosh,  
 M. Goldey,  P. R. Horn,  L. D. Jacobson,  I. Kaliman,  T. Kus,  A. Landau,  
 Jie Liu,  E. I. Proynov,  R. M. Richard,  R. P. Steele,  E. J. Sundstrom,  
 H. L. Woodcock III,  P. M. Zimmerman,  D. Zuev,  B. Alam,  B. Albrecht,  
 A. Aldossary,  E. Alguire,  S. A. Baeppler,  D. Barton,  Z. Benda,  
 Y. A. Bernard,  E. J. Berquist,  K. B. Bravaya,  H. Burton,  K. Carter-Fenk,  
 D. Casanova,  Chun-Min Chang,  Yunqing Chen,  A. Chien,  K. D. Closser,  
 M. P. Coons,  S. Coriani,  S. Dasgupta,  A. L. Dempwolff,  M. Diedenhofen,  
 Hainam Do,  R. G. Edgar,  Po-Tung Fang,  S. Faraji,  S. Fatehi,  
 Qingguo Feng,  J. Fosso-Tande,  J. Gayvert,  Qinghui Ge,  A. Ghysels,  
 G. Gidofalvi,  J. Gomes,  J. Gonthier,  S. Gulania,  A. Gunina,  D. Hait,  
 M. W. D. Hanson-Heine,  S. Hammes-Schiffer,  P. H. P. Harbach,  
 A. W. Hauser,  M. F. Herbst,  J. E. Herr,  E. G. Hohenstein,  Z. C. Holden,  
 S. Houck,  Kerwin Hui,  B. C. Huynh,  M. Ivanov,  T.-C. Jagau,  Hyunjun Ji,  
 B. Kaduk,  K. Khistyaev,  Jaehoon Kim,  P. Klunzinger,  K. Koh,  
 D. Kosenkov,  L. Koulias,  T. Kowalczyk,  C. M. Krauter,  A. Kunitsa,  
 Ka Un Lao,  A. Laurent,  K. V. Lawler,  Joonho Lee,  D. Lefrancois,  
 S. Lehtola,  D. S. Levine,  Yi-Pei Li,  You-Sheng Lin,  Fenglai Liu,  
 Kuan-Yu Liu,  E. Livshits,  M. Loipersberger,  A. Luenser,  P. Manohar,  
 E. Mansoor,  S. F. Manzer,  Shan-Ping Mao,  Yuezhi Mao,  N. Mardirossian,  
 A. V. Marenich,  T. Markovich,  L. A. Martinez-Martinez,  S. A. Maurer,  
 N. J. Mayhall,  S. C. McKenzie,  J.-M. Mewes,  P. Morgante,  A. F. Morrison,  
 J. W. Mullinax,  K. Nanda,  T. S. Nguyen-Beck,  R. Olivares-Amaya,  
 K. J. Oosterbaan,  J. A. Parkhill,  S. K. Paul,  F. Pavosevic,  Zheng Pei,  
 T. M. Perrine,  F. Plasser,  P. Pokhilko,  S. Prager,  A. Prociuk,  
 E. Ramos,  B. Rana,  D. R. Rehn,  F. Rob,  E. Rossomme,  M. Scheurer,  
 M. Schneider,  N. Sergueev,  S. M. Sharada,  S. Sharma,  W. Skomorowski,  
 D. W. Small,  T. Stauch,  C. J. Stein,  T. Stein,  Yu-Chuan Su,  
 S. P. Veccham,  Zhen Tao,  A. J. W. Thom,  A. Tkatchenko,  T. Tsuchimochi,  
 N. M. Tubman,  L. Vogt,  M. L. Vidal,  O. Vydrov,  M. A. Watson,  J. Wenzel,  
 M. de Wergifosse,  T. A. Wesolowski,  A. White,  J. Witte,  A. Yamada,  
 Jun Yang,  K. Yao,  S. Yeganeh,  S. R. Yost,  Zhi-Qiang You,  A. Zech,  
 Igor Ying Zhang,  Xing Zhang,  Yan Zhao,  Ying Zhu,  B. R. Brooks,  
 G. K. L. Chan,  C. J. Cramer,  M. S. Gordon,  W. J. Hehre,  A. Klamt,  
 M. W. Schmidt,  C. D. Sherrill,  D. G. Truhlar,  A. Aspuru-Guzik,  R. Baer,  
 A. T. Bell,  N. A. Besley,  Jeng-Da Chai,  A. E. DePrince, III,  
 R. A. DiStasio Jr.,  A. Dreuw,  B. D. Dunietz,  T. R. Furlani,  
 Chao-Ping Hsu,  Yousung Jung,  Jing Kong,  D. S. Lambrecht,  WanZhen Liang,  
 C. Ochsenfeld,  V. A. Rassolov,  L. V. Slipchenko,  J. E. Subotnik,  
 T. Van Voorhis,  J. M. Herbert,  A. I. Krylov,  P. M. W. Gill,  M. Head-Gordon

 Contributors to earlier versions of Q-Chem not listed above: 
 R. D. Adamson,  B. Austin,  J. Baker,  G. J. O. Beran,  K. Brandhorst,  
 S. T. Brown,  E. F. C. Byrd,  A. K. Chakraborty,  C.-L. Cheng,  
 Siu Hung Chien,  D. M. Chipman,  D. L. Crittenden,  H. Dachsel,  
 R. J. Doerksen,  A. D. Dutoi,  L. Fusti-Molnar,  W. A. Goddard III,  
 A. Golubeva-Zadorozhnaya,  S. R. Gwaltney,  G. Hawkins,  A. Heyden,  
 S. Hirata,  G. Kedziora,  F. J. Keil,  C. Kelley,  Jihan Kim,  R. A. King,  
 R. Z. Khaliullin,  P. P. Korambath,  W. Kurlancheek,  A. M. Lee,  M. S. Lee,  
 S. V. Levchenko,  Ching Yeh Lin,  D. Liotard,  R. C. Lochan,  I. Lotan,  
 P. E. Maslen,  N. Nair,  D. P. O'Neill,  D. Neuhauser,  E. Neuscamman,  
 C. M. Oana,  R. Olson,  B. Peters,  R. Peverati,  P. A. Pieniazek,  
 Y. M. Rhee,  J. Ritchie,  M. A. Rohrdanz,  E. Rosta,  N. J. Russ,  
 H. F. Schaefer III,  N. E. Schultz,  N. Shenvi,  A. C. Simmonett,  A. Sodt,  
 D. Stuck,  K. S. Thanthiriwatte,  V. Vanovschi,  Tao Wang,  A. Warshel,  
 C. F. Williams,  Q. Wu,  X. Xu,  W. Zhang

 Please cite Q-Chem as follows:
 Y. Shao et al., Mol. Phys. 113, 184-215 (2015)
 DOI: 10.1080/00268976.2014.952696

 Q-Chem 5.3.1 for Intel X86 EM64T Linux

 Parts of Q-Chem use Armadillo 9.800.1 (Horizon Scraper).
 http://arma.sourceforge.net/

 Q-Chem begins on Mon Jun 28 12:30:32 2021  

Host: 
0

     Scratch files written to /scratch/scaparas/job_3660071/qchem118487//
 Aug2920 |scratch|qcdevops|jenkins|workspace|build_RNUM    
Processing $rem in /cm/shared/apps/spack/cpu/opt/spack/linux-centos8-zen2/gcc-10.2.0/qchem-5.3-5qddma6gy34jvefiv7mbcb7qm253n45r/config/preferences:
Processing $rem in /home/scaparas/.qchemrc:

Checking the input file for inconsistencies... 	...done.

--------------------------------------------------------------
User input:
--------------------------------------------------------------
$molecule
0 1
C   -2.1510630    0.6892080    0.0000880
C   -2.1279270   -0.7158180    0.0000750
C   -0.9322970   -1.4131000   -0.0000110
C    0.2469110   -0.6702010   -0.0000420
C    0.2481930    0.7482990    0.0000000
C   -0.9794740    1.4235260    0.0000320
N    1.5617740   -1.0775920   -0.0002850
C    1.6201330    1.1629000   -0.0001570
C    2.3820130    0.0308060    0.0002480
H    1.8763150   -2.0300110    0.0004380
H    1.9921730    2.1730100   -0.0003480
H    3.4525490   -0.0824250    0.0004080
H   -3.0615940   -1.2620200    0.0000880
H   -0.9172520   -2.4953420   -0.0000730
H   -3.1042030    1.2007850    0.0000900
H   -1.0093480    2.5054210   -0.0000150
$end

$rem
BASIS  =  6-31+G*
GUI  =  2
JOB_TYPE  =  Optimization
METHOD  = PBE0
SCF_CONVERGENCE  =  8
THRESH = 12
CIS_N_ROOTS  = 3
CIS_SINGLETS = true
CIS_TRIPLETS = false
CIS_STATE_DERIV = 3
MEM_STATIC = 500
MEM_TOTAL = 3000
$end
--------------------------------------------------------------
 ----------------------------------------------------------------
             Standard Nuclear Orientation (Angstroms)
    I     Atom           X                Y                Z
 ----------------------------------------------------------------
    1      C       2.1510629040    -0.6892079969     0.0000583065
    2      C       2.1279268385     0.7158180020     0.0000481775
    3      C       0.9322968051     1.4130999466    -0.0000206639
    4      C      -0.2469111607     0.6702008918    -0.0000373513
    5      C      -0.2481930942    -0.7482991083     0.0000020775
    6      C       0.9794739374    -1.4235260513     0.0000165335
    7      N      -1.5617741827     1.0775918311    -0.0002621374
    8      C      -1.6201330769    -1.1629001718    -0.0001374500
    9      C      -2.3820131241    -0.0308062080     0.0002797387
   10      H      -1.8763152174     2.0300108152     0.0004667797
   11      H      -1.9921730325    -2.1730101887    -0.0003253498
   12      H      -3.4525491271     0.0824247420     0.0004541695
   13      H       3.0615938132     1.2620200454     0.0000497686
   14      H       0.9172517540     2.4953419460    -0.0000804893
   15      H       3.1042029277    -1.2007849526     0.0000467087
   16      H       1.0093479871    -2.5054210498    -0.0000328375
 ----------------------------------------------------------------
 Molecular Point Group                 C1    NOp =  1
 Largest Abelian Subgroup              C1    NOp =  1
 Nuclear Repulsion Energy =         401.33686680 hartrees
 There are       31 alpha and       31 beta electrons
 Requested basis set is 6-31+G(d)
 There are 59 shells and 185 basis functions

 Total QAlloc Memory Limit   3000 MB
 Mega-Array Size       489 MB
 MEM_STATIC part       500 MB
 A cutoff of  1.0D-12 yielded   1657 shell pairs
 There are     17105 function pairs
 Smallest overlap matrix eigenvalue = 1.26E-06

 Scale SEOQF with 1.000000e-01/1.000000e-01/1.000000e-01

 Standard Electronic Orientation quadrupole field applied
 Nucleus-field energy     =     0.0000000117 hartrees
 Guess from superposition of atomic densities
 Warning:  Energy on first SCF cycle will be non-variational
 SAD guess density has 62.000000 electrons

 -----------------------------------------------------------------------
  General SCF calculation program by
  Eric Jon Sundstrom, Paul Horn, Yuezhi Mao, Dmitri Zuev, Alec White,
  David Stuck, Shaama M.S., Shane Yost, Joonho Lee, David Small,
  Daniel Levine, Susi Lehtola, Hugh Burton, Evgeny Epifanovsky,
  Bang C. Huynh
 -----------------------------------------------------------------------
 Exchange:     0.2500 Hartree-Fock + 0.7500 PBE
 Correlation:  1.0000 PBE
 Using SG-1 standard quadrature grid
 using 4 threads for integral computing
 -------------------------------------------------------
 OpenMP Integral computing Module                
 Release: version 1.0, May 2013, Q-Chem Inc. Pittsburgh 
 -------------------------------------------------------
 A restricted SCF calculation will be
 performed using DIIS
 SCF converges when DIIS error is below 1.0e-08
 ---------------------------------------
  Cycle       Energy         DIIS error
 ---------------------------------------
    1    -365.9013529445      5.56e-02  
    2    -363.2957944551      4.64e-03  
    3    -363.2677149305      5.28e-03  
    4    -363.3964543729      1.28e-03  
    5    -363.4032792573      3.47e-04  
    6    -363.4037723372      9.94e-05  
    7    -363.4038100528      3.87e-05  
    8    -363.4038166384      7.41e-06  
    9    -363.4038168607      1.51e-06  
   10    -363.4038168705      6.14e-07  
   11    -363.4038168720      1.99e-07  
   12    -363.4038168722      6.64e-08  
   13    -363.4038168722      1.87e-08  
   14    -363.4038168722      5.67e-09  Convergence criterion met
 ---------------------------------------
 SCF time:   CPU 39.74s  wall 10.00s 
 SCF   energy in the final basis set =     -363.4038168722
 Total energy in the final basis set =     -363.4038168722
 
 Direct TDDFT/TDA calculation will be performed
 Exchange:     0.2500 Hartree-Fock + 0.7500 PBE
 Correlation:  1.0000 PBE
 Using SG-1 standard quadrature grid
 Singlet excitation energies requested
 CIS energy converged when residual is below 10e- 6
 ---------------------------------------------------
 Iter    Rts Conv    Rts Left    Ttl Dev     Max Dev
 ---------------------------------------------------
   1         0           3      0.003678    0.001810
   2         0           3      0.001454    0.000800
   3         0           3      0.000314    0.000187
   4         0           3      0.000131    0.000076
   5         0           3      0.000046    0.000028
   6         1           2      0.000010    0.000006
   7         1           2      0.000004    0.000002
   8         3           0      0.000001    0.000001    Roots Converged
 ---------------------------------------------------
 
 ---------------------------------------------------
         TDDFT/TDA Excitation Energies              
 ---------------------------------------------------

 Excited state   1: excitation energy (eV) =    5.0293
 Total energy for state  1:                  -363.21899437 au
    Multiplicity: Singlet
    Trans. Mom.:  0.3951 X  -0.6619 Y  -0.0003 Z
    Strength   :     0.0732287081
    D(   30) --> V(    1) amplitude = -0.4091
    D(   30) --> V(    4) amplitude = -0.2395
    D(   31) --> V(    1) amplitude =  0.8169

 Excited state   2: excitation energy (eV) =    5.0805
 Total energy for state  2:                  -363.21711177 au
    Multiplicity: Singlet
    Trans. Mom.:  0.6509 X  -0.1003 Y  -0.0005 Z
    Strength   :     0.0539944107
    D(   30) --> V(    1) amplitude =  0.6714
    D(   31) --> V(    1) amplitude =  0.4117
    D(   31) --> V(    4) amplitude =  0.5823

 Excited state   3: excitation energy (eV) =    5.1254
 Total energy for state  3:                  -363.21546317 au
    Multiplicity: Singlet
    Trans. Mom.:  0.0029 X  -0.0016 Y   0.1348 Z
    Strength   :     0.0022816839
    D(   31) --> V(    2) amplitude =  0.9936
 
 ---------------------------------------------------
 Calculating Relaxed Density
 ---------------------------------------------------
 Iter    Rts Conv    Rts Left    Ttl Dev     Max Dev
 ---------------------------------------------------
   1         0           3      0.001392    0.000682
   2         0           3      0.000530    0.000231
   3         0           3      0.000122    0.000051
   4         0           3      0.000032    0.000016
   5         0           3      0.000008    0.000003
   6         3           0      0.000000    0.000000    Roots Converged
 ---------------------------------------------------
  SETman timing summary (seconds)
  CPU time               111.49s
  System time              0.00s
  Wall time               28.05s
 
 --------------------------------------------------------------
 
                    Orbital Energies (a.u.)
 --------------------------------------------------------------
 
 Alpha MOs
 -- Occupied --
-14.4515 -10.2722 -10.2703 -10.2400 -10.2362 -10.2346 -10.2345 -10.2294
-10.2271  -1.0145  -0.8683  -0.8100  -0.7613  -0.7427  -0.6467  -0.6166
 -0.6029  -0.5598  -0.5009  -0.4884  -0.4540  -0.4452  -0.4401  -0.4267
 -0.4068  -0.3690  -0.3502  -0.3481  -0.2930  -0.2353  -0.2182
 -- Virtual --
 -0.0119   0.0061   0.0249   0.0250   0.0305   0.0459   0.0469   0.0528
  0.0674   0.0690   0.0750   0.0754   0.0938   0.0973   0.1155   0.1158
  0.1200   0.1345   0.1438   0.1475   0.1634   0.1660   0.1752   0.1763
  0.1808   0.1903   0.1961   0.1979   0.2061   0.2088   0.2107   0.2132
  0.2281   0.2338   0.2406   0.2448   0.2474   0.2555   0.2663   0.2704
  0.2807   0.2825   0.2887   0.3068   0.3126   0.3205   0.3264   0.3430
  0.3619   0.3786   0.3905   0.4114   0.4483   0.4625   0.5272   0.5959
  0.6412   0.6897   0.6912   0.7169   0.7324   0.7385   0.7465   0.7547
  0.7595   0.7711   0.7753   0.7958   0.8106   0.8179   0.8315   0.8717
  0.9119   0.9190   0.9306   0.9534   0.9609   0.9696   0.9784   1.0011
  1.0211   1.0479   1.0641   1.0811   1.1094   1.1282   1.1318   1.1864
  1.1948   1.2204   1.2395   1.2452   1.2679   1.3312   1.3345   1.3518
  1.3850   1.4258   1.4332   1.4689   1.4719   1.4788   1.5099   1.5157
  1.5556   1.6059   1.6660   1.8027   1.8615   1.9010   1.9069   1.9398
  1.9609   2.0135   2.0160   2.0209   2.0818   2.1187   2.1606   2.1901
  2.1917   2.2174   2.2657   2.2776   2.2829   2.3046   2.3337   2.3989
  2.4268   2.4662   2.5686   2.5774   2.6577   2.6794   2.6894   2.7219
  2.7583   2.8320   2.8692   2.8808   2.9774   3.0024   3.1363   3.2673
  3.4730   4.1821   4.2940   4.3238   4.3583   4.3943   4.4296   4.5130
  4.5522   4.8220
 --------------------------------------------------------------
 
          Ground-State Mulliken Net Atomic Charges

     Atom                 Charge (a.u.)
  ----------------------------------------
      1 C                     0.017565
      2 C                    -0.538746
      3 C                    -0.124896
      4 C                    -1.180642
      5 C                     1.578554
      6 C                    -0.795310
      7 N                    -0.466689
      8 C                     0.034566
      9 C                    -0.228456
     10 H                     0.436792
     11 H                     0.218965
     12 H                     0.217317
     13 H                     0.206176
     14 H                     0.207413
     15 H                     0.204745
     16 H                     0.212644
  ----------------------------------------
  Sum of atomic charges =     0.000000

 -----------------------------------------------------------------
                    Cartesian Multipole Moments
 -----------------------------------------------------------------
    Charge (ESU x 10^10)
                -0.0000
    Dipole Moment (Debye)
         X      -1.5173      Y       1.5693      Z       0.0011
       Tot       2.1829
    Quadrupole Moments (Debye-Ang)
        XX     -44.7777     XY      -3.1829     YY     -43.9417
        XZ      -0.0032     YZ       0.0033     ZZ     -58.6724
    Octopole Moments (Debye-Ang^2)
       XXX     -14.5714    XXY       8.2174    XYY      -7.9674
       YYY      10.4206    XXZ       0.0076    XYZ      -0.0067
       YYZ       0.0020    XZZ      -2.0071    YZZ       2.0022
       ZZZ      -0.0009
    Hexadecapole Moments (Debye-Ang^3)
      XXXX    -803.1552   XXXY     -21.5780   XXYY    -193.3175
      XYYY     -19.5449   YYYY    -363.4973   XXXZ      -0.0242
      XXYZ       0.0131   XYYZ      -0.0071   YYYZ       0.0143
      XXZZ    -187.6672   XYZZ      -3.9239   YYZZ     -92.7144
      XZZZ      -0.0010   YZZZ       0.0029   ZZZZ     -71.5603
 -----------------------------------------------------------------
 Calculating analytic gradient of the CIS energy
 CIS relaxed dipole moment
            1
    1   2.3228593
    2  -2.6075086
    3   0.0025983
	Magnitude:	 3.492 au	 8.876 Debye
 CIS 3 State Energy is -363.2154631737
 Gradient of the state energy (including CIS Excitation Energy)
            1           2           3           4           5           6
    1  -0.0113494  -0.0143512   0.0292376  -0.0082962   0.0071667   0.0070921
    2  -0.0142261   0.0251346  -0.0060053   0.0002675  -0.0026001   0.0079202
    3  -0.0000124   0.0000086   0.0000283  -0.0000323   0.0000506   0.0000380
            7           8           9          10          11          12
    1   0.0207215  -0.0399647  -0.0092109   0.0141497   0.0021392   0.0062037
    2   0.0672643   0.0222346  -0.0705910  -0.0320197   0.0051435  -0.0038757
    3  -0.0001085  -0.0000555   0.0001074   0.0000177  -0.0000057  -0.0000056
           13          14          15          16
    1  -0.0025785   0.0020279  -0.0026449  -0.0003426
    2  -0.0015457  -0.0017561   0.0016081   0.0030468
    3  -0.0000006  -0.0000109  -0.0000082  -0.0000108
 Gradient time:  CPU 22.14 s  wall 5.62 s
 Geometry Optimization Parameters
   NAtoms,    NIC,     NZ,  NCons,   NDum,   NFix, NCnnct, MaxDiis
       16     116       0       0       0       0       0       0


** GEOMETRY OPTIMIZATION IN DELOCALIZED INTERNAL COORDINATES **
   Searching for a Minimum

   Optimization Cycle:   1

                       Coordinates (Angstroms)
     ATOM                X               Y               Z
      1  C         2.1510629040   -0.6892079969    0.0000583065
      2  C         2.1279268385    0.7158180020    0.0000481775
      3  C         0.9322968051    1.4130999466   -0.0000206639
      4  C        -0.2469111607    0.6702008918   -0.0000373513
      5  C        -0.2481930942   -0.7482991083    0.0000020775
      6  C         0.9794739374   -1.4235260513    0.0000165335
      7  N        -1.5617741827    1.0775918311   -0.0002621374
      8  C        -1.6201330769   -1.1629001718   -0.0001374500
      9  C        -2.3820131241   -0.0308062080    0.0002797387
     10  H        -1.8763152174    2.0300108152    0.0004667797
     11  H        -1.9921730325   -2.1730101887   -0.0003253498
     12  H        -3.4525491271    0.0824247420    0.0004541695
     13  H         3.0615938132    1.2620200454    0.0000497686
     14  H         0.9172517540    2.4953419460   -0.0000804893
     15  H         3.1042029277   -1.2007849526    0.0000467087
     16  H         1.0093479871   -2.5054210498   -0.0000328375
   Point Group: c1    Number of degrees of freedom:    42


   Energy is   -363.215463174


 Attempting to generate delocalized internal coordinates
 Initial Hessian constructed with Jon Baker's OPTIMIZE code

 42 Hessian modes will be used to form the next step
  Hessian Eigenvalues:
     0.018594    0.019738    0.020011    0.020794    0.021683    0.022200
     0.022636    0.023004    0.023236    0.023608    0.023851    0.023984
     0.024127    0.160000    0.160000    0.160000    0.160000    0.160000
     0.160000    0.160000    0.220000    0.221879    0.226618    0.240111
     0.246509    0.357123    0.357170    0.357835    0.357899    0.364196
     0.364272    0.370088    0.384319    0.426334    0.434649    0.457693
     0.466917    0.471622    0.474685    0.475669    0.481247    0.509555

 Minimum search - taking simple RFO step
 Searching for Lamda that Minimizes Along All modes
 Value Taken    Lamda =  -0.01471129
 Step Taken.  Stepsize is  0.178396

                             Maximum     Tolerance    Cnvgd?
         Gradient           0.038436      0.000300      NO
         Displacement       0.094522      0.001200      NO
         Energy change     *********      0.000001      NO


 New Cartesian Coordinates Obtained by Inverse Iteration

 Displacement from previous Coordinates is:  0.249064
 ----------------------------------------------------------------
             Standard Nuclear Orientation (Angstroms)
    I     Atom           X                Y                Z
 ----------------------------------------------------------------
    1      C       2.1754381814    -0.6995623492    -0.0000642942
    2      C       2.1262691752     0.6958132683    -0.0000582442
    3      C       0.9036609578     1.4017227007     0.0000384376
    4      C      -0.2592580704     0.6595802365     0.0002066151
    5      C      -0.2336381984    -0.7554994864     0.0000247914
    6      C       0.9952888754    -1.4418994815    -0.0001670195
    7      N      -1.5811251625     1.0706478501     0.0000641716
    8      C      -1.5911955498    -1.1591399991     0.0002082563
    9      C      -2.3758658054     0.0080320475    -0.0000206493
   10      H      -1.9227317426     2.0539198215     0.0003927621
   11      H      -1.9697537635    -2.1751281408     0.0001158986
   12      H      -3.4528494601     0.1452645113    -0.0001692737
   13      H       3.0570898195     1.2551894603    -0.0000496985
   14      H       0.8702972592     2.4860988548     0.0001486518
   15      H       3.1371645497    -1.2043235899    -0.0000214698
   16      H       1.0243038857    -2.5281632114    -0.0001229543
 ----------------------------------------------------------------
 Molecular Point Group                 C1    NOp =  1
 Largest Abelian Subgroup              C1    NOp =  1
 Nuclear Repulsion Energy =         401.09993049 hartrees
 There are       31 alpha and       31 beta electrons
 Applying Cartesian multipole field
    Component          Value
    ---------          -----
     (2,0,0)        1.00000E-11
     (0,2,0)        2.00000E-11
     (0,0,2)       -3.00000E-11
 Nucleus-field energy     =     0.0000000117 hartrees
 Requested basis set is 6-31+G(d)
 There are 59 shells and 185 basis functions
 A cutoff of  1.0D-12 yielded   1658 shell pairs
 There are     17111 function pairs
 Smallest overlap matrix eigenvalue = 1.18E-06
 Guess MOs from SCF MO coefficient file

 -----------------------------------------------------------------------
  General SCF calculation program by
  Eric Jon Sundstrom, Paul Horn, Yuezhi Mao, Dmitri Zuev, Alec White,
  David Stuck, Shaama M.S., Shane Yost, Joonho Lee, David Small,
  Daniel Levine, Susi Lehtola, Hugh Burton, Evgeny Epifanovsky,
  Bang C. Huynh
 -----------------------------------------------------------------------
 Exchange:     0.2500 Hartree-Fock + 0.7500 PBE
 Correlation:  1.0000 PBE
 Using SG-1 standard quadrature grid
 using 4 threads for integral computing
 -------------------------------------------------------
 OpenMP Integral computing Module                
 Release: version 1.0, May 2013, Q-Chem Inc. Pittsburgh 
 -------------------------------------------------------
 A restricted SCF calculation will be
 performed using DIIS
 SCF converges when DIIS error is below 1.0e-08
 ---------------------------------------
  Cycle       Energy         DIIS error
 ---------------------------------------
    1    -363.3938548614      8.61e-04  
    2    -363.3979022118      2.16e-04  
    3    -363.3979396697      1.96e-04  
    4    -363.3980759162      6.88e-05  
    5    -363.3980937545      2.43e-05  
    6    -363.3980965402      5.80e-06  
    7    -363.3980966874      2.19e-06  
    8    -363.3980967097      8.60e-07  
    9    -363.3980967132      2.63e-07  
   10    -363.3980967135      5.80e-08  
   11    -363.3980967135      3.35e-08  
   12    -363.3980967135      3.52e-09  Convergence criterion met
 ---------------------------------------
 SCF time:   CPU 34.94s  wall 8.00s 
 SCF   energy in the final basis set =     -363.3980967135
 Total energy in the final basis set =     -363.3980967135
 
 Direct TDDFT/TDA calculation will be performed
 Exchange:     0.2500 Hartree-Fock + 0.7500 PBE
 Correlation:  1.0000 PBE
 Using SG-1 standard quadrature grid
 Singlet excitation energies requested
 CIS energy converged when residual is below 10e- 6
 ---------------------------------------------------
 Iter    Rts Conv    Rts Left    Ttl Dev     Max Dev
 ---------------------------------------------------
   1         0           3      0.003718    0.001835
   2         0           3      0.001663    0.001138
   3         0           3      0.000444    0.000332
   4         0           3      0.000175    0.000135
   5         0           3      0.000059    0.000045
   6         1           2      0.000016    0.000012
   7         1           2      0.000006    0.000005
   8         2           1      0.000002    0.000002
   9         3           0      0.000001    0.000000    Roots Converged
 ---------------------------------------------------
 
 ---------------------------------------------------
         TDDFT/TDA Excitation Energies              
 ---------------------------------------------------

 Excited state   1: excitation energy (eV) =    4.7256
 Total energy for state  1:                  -363.22443374 au
    Multiplicity: Singlet
    Trans. Mom.: -0.0008 X   0.0008 Y  -0.1292 Z
    Strength   :     0.0019319544
    D(   31) --> V(    2) amplitude =  0.9949

 Excited state   2: excitation energy (eV) =    4.7563
 Total energy for state  2:                  -363.22330616 au
    Multiplicity: Singlet
    Trans. Mom.: -0.8619 X   0.6541 Y   0.0001 Z
    Strength   :     0.1364295434
    D(   30) --> V(    4) amplitude =  0.2196
    D(   31) --> V(    1) amplitude =  0.9152

 Excited state   3: excitation energy (eV) =    5.0473
 Total energy for state  3:                  -363.21261217 au
    Multiplicity: Singlet
    Trans. Mom.:  0.0572 X  -0.2200 Y  -0.0000 Z
    Strength   :     0.0063898428
    D(   30) --> V(    1) amplitude =  0.7260
    D(   31) --> V(    4) amplitude = -0.6500
 
 ---------------------------------------------------
 Calculating Relaxed Density
 ---------------------------------------------------
 Iter    Rts Conv    Rts Left    Ttl Dev     Max Dev
 ---------------------------------------------------
   1         0           3      0.001491    0.000757
   2         0           3      0.000566    0.000259
   3         0           3      0.000142    0.000066
   4         0           3      0.000039    0.000018
   5         1           2      0.000008    0.000005
   6         2           1      0.000001    0.000001
   7         3           0      0.000000    0.000000    Roots Converged
 ---------------------------------------------------
  SETman timing summary (seconds)
  CPU time               121.47s
  System time              0.00s
  Wall time               30.56s
 
 --------------------------------------------------------------
 
                    Orbital Energies (a.u.)
 --------------------------------------------------------------
 
 Alpha MOs
 -- Occupied --
-14.4586 -10.2741 -10.2692 -10.2422 -10.2366 -10.2361 -10.2356 -10.2322
-10.2263  -1.0249  -0.8688  -0.8046  -0.7672  -0.7337  -0.6494  -0.6154
 -0.6015  -0.5595  -0.4994  -0.4884  -0.4554  -0.4463  -0.4457  -0.4186
 -0.4052  -0.3688  -0.3520  -0.3483  -0.2896  -0.2422  -0.2083
 -- Virtual --
 -0.0148   0.0015   0.0246   0.0257   0.0311   0.0455   0.0472   0.0527
  0.0668   0.0689   0.0734   0.0750   0.0944   0.0964   0.1151   0.1158
  0.1187   0.1347   0.1433   0.1442   0.1605   0.1657   0.1734   0.1760
  0.1809   0.1893   0.1954   0.1980   0.2047   0.2102   0.2109   0.2126
  0.2275   0.2327   0.2426   0.2427   0.2457   0.2559   0.2626   0.2704
  0.2806   0.2814   0.2893   0.3074   0.3078   0.3180   0.3284   0.3459
  0.3649   0.3731   0.3877   0.4080   0.4442   0.4625   0.5301   0.5940
  0.6376   0.6899   0.6918   0.7154   0.7383   0.7397   0.7472   0.7534
  0.7573   0.7729   0.7821   0.7952   0.8101   0.8149   0.8314   0.8720
  0.9055   0.9142   0.9260   0.9569   0.9609   0.9711   0.9770   1.0035
  1.0204   1.0410   1.0581   1.0631   1.1062   1.1262   1.1315   1.1917
  1.1921   1.2214   1.2373   1.2444   1.2628   1.3258   1.3413   1.3559
  1.3825   1.4252   1.4323   1.4689   1.4745   1.4801   1.5084   1.5147
  1.5630   1.6060   1.6671   1.7861   1.8530   1.9033   1.9120   1.9301
  1.9612   2.0057   2.0095   2.0213   2.0769   2.1110   2.1622   2.1838
  2.1935   2.1996   2.2632   2.2727   2.2849   2.3199   2.3370   2.3947
  2.4344   2.4746   2.5607   2.5835   2.6588   2.6700   2.6855   2.7129
  2.7509   2.8306   2.8640   2.8767   2.9713   3.0031   3.1217   3.2728
  3.4630   4.1887   4.2886   4.3187   4.3501   4.3941   4.4303   4.5130
  4.5523   4.8222
 --------------------------------------------------------------
 
          Ground-State Mulliken Net Atomic Charges

     Atom                 Charge (a.u.)
  ----------------------------------------
      1 C                    -0.005715
      2 C                    -0.527323
      3 C                    -0.184093
      4 C                    -1.208027
      5 C                     1.630595
      6 C                    -0.691963
      7 N                    -0.415311
      8 C                    -0.089939
      9 C                    -0.211118
     10 H                     0.437495
     11 H                     0.215851
     12 H                     0.217020
     13 H                     0.204670
     14 H                     0.206337
     15 H                     0.207467
     16 H                     0.214054
  ----------------------------------------
  Sum of atomic charges =     0.000000

 -----------------------------------------------------------------
                    Cartesian Multipole Moments
 -----------------------------------------------------------------
    Charge (ESU x 10^10)
                -0.0000
    Dipole Moment (Debye)
         X      -1.5976      Y       1.8180      Z       0.0004
       Tot       2.4203
    Quadrupole Moments (Debye-Ang)
        XX     -44.7073     XY      -4.2482     YY     -43.9597
        XZ       0.0000     YZ       0.0017     ZZ     -58.8492
    Octopole Moments (Debye-Ang^2)
       XXX     -14.9854    XXY       9.8806    XYY      -8.6244
       YYY      11.8800    XXZ      -0.0016    XYZ      -0.0032
       YYZ       0.0025    XZZ      -2.1655    YZZ       2.4697
       ZZZ      -0.0047
    Hexadecapole Moments (Debye-Ang^3)
      XXXX    -804.5502   XXXY     -23.6067   XXYY    -193.1194
      XYYY     -17.3654   YYYY    -363.7538   XXXZ       0.0229
      XXYZ       0.0028   XYYZ      -0.0003   YYYZ       0.0026
      XXZZ    -188.7969   XYZZ      -2.2931   YYZZ     -93.3747
      XZZZ       0.0181   YZZZ      -0.0059   ZZZZ     -72.2470
 -----------------------------------------------------------------
 Calculating analytic gradient of the CIS energy
 CIS relaxed dipole moment
            1
    1  -0.9012737
    2   0.5330210
    3   0.0002148
	Magnitude:	 1.047 au	 2.661 Debye
 CIS 3 State Energy is -363.2126121733
 Gradient of the state energy (including CIS Excitation Energy)
            1           2           3           4           5           6
    1  -0.0146139  -0.0111417  -0.0102139   0.0041004   0.0061327   0.0197999
    2   0.0126533  -0.0318300  -0.0137997  -0.0296815   0.0272063   0.0156767
    3   0.0000032  -0.0000006  -0.0000086   0.0000132  -0.0000160  -0.0000137
            7           8           9          10          11          12
    1  -0.0298570   0.0173478   0.0336986  -0.0125336   0.0006120  -0.0023426
    2  -0.0546299  -0.0015692   0.0504396   0.0246151  -0.0017087   0.0050011
    3  -0.0000082   0.0000351  -0.0000203   0.0000108  -0.0000011  -0.0000034
           13          14          15          16
    1   0.0004020  -0.0028924   0.0003507   0.0011510
    2  -0.0008918  -0.0014862   0.0002477  -0.0002428
    3   0.0000003   0.0000036   0.0000008   0.0000047
 Gradient time:  CPU 22.53 s  wall 5.67 s
 Geometry Optimization Parameters
   NAtoms,    NIC,     NZ,  NCons,   NDum,   NFix, NCnnct, MaxDiis
       16     116       0       0       0       0       0       0

 Cartesian Hessian Update
 Hessian updated using BFGS update


** GEOMETRY OPTIMIZATION IN DELOCALIZED INTERNAL COORDINATES **
   Searching for a Minimum

   Optimization Cycle:   2

                       Coordinates (Angstroms)
     ATOM                X               Y               Z
      1  C         2.1754381814   -0.6995623492   -0.0000642942
      2  C         2.1262691752    0.6958132683   -0.0000582442
      3  C         0.9036609578    1.4017227007    0.0000384376
      4  C        -0.2592580704    0.6595802365    0.0002066151
      5  C        -0.2336381984   -0.7554994864    0.0000247914
      6  C         0.9952888754   -1.4418994815   -0.0001670195
      7  N        -1.5811251625    1.0706478501    0.0000641716
      8  C        -1.5911955498   -1.1591399991    0.0002082563
      9  C        -2.3758658054    0.0080320475   -0.0000206493
     10  H        -1.9227317426    2.0539198215    0.0003927621
     11  H        -1.9697537635   -2.1751281408    0.0001158986
     12  H        -3.4528494601    0.1452645113   -0.0001692737
     13  H         3.0570898195    1.2551894603   -0.0000496985
     14  H         0.8702972592    2.4860988548    0.0001486518
     15  H         3.1371645497   -1.2043235899   -0.0000214698
     16  H         1.0243038857   -2.5281632114   -0.0001229543
   Point Group: c1    Number of degrees of freedom:    42


   Energy is   -363.212612173

 Hessian updated using BFGS update

 40 Hessian modes will be used to form the next step
  Hessian Eigenvalues:
     0.018594    0.019738    0.020011    0.020794    0.021683    0.022200
     0.022636    0.023004    0.023236    0.023608    0.023851    0.023984
     0.024127    0.159747    0.160000    0.160000    0.160000    0.162216
     0.218979    0.221236    0.226583    0.244707    0.248470    0.341893
     0.357162    0.357463    0.357867    0.360351    0.364247    0.369991
     0.375945    0.385746    0.426859    0.447230    0.459811    0.468222
     0.473336    0.476317    0.495988    1.127634

 Minimum search - taking simple RFO step
 Searching for Lamda that Minimizes Along All modes
 Value Taken    Lamda =  -0.00845484
 Step Taken.  Stepsize is  0.100418

                             Maximum     Tolerance    Cnvgd?
         Gradient           0.045444      0.000300      NO
         Displacement       0.052926      0.001200      NO
         Energy change      0.002851      0.000001      NO


 New Cartesian Coordinates Obtained by Inverse Iteration

 Displacement from previous Coordinates is:  0.158336
 ----------------------------------------------------------------
             Standard Nuclear Orientation (Angstroms)
    I     Atom           X                Y                Z
 ----------------------------------------------------------------
    1      C       2.1788630318    -0.6986056483    -0.0000777250
    2      C       2.1466647133     0.7155092338    -0.0000918809
    3      C       0.9174259117     1.4268027714     0.0000475474
    4      C      -0.2516855259     0.6735443388     0.0002664865
    5      C      -0.2454902102    -0.7632368173     0.0000405053
    6      C       0.9827504706    -1.4519663744    -0.0001791427
    7      N      -1.5763111826     1.0697999133     0.0001768406
    8      C      -1.6055254284    -1.1725725340     0.0002346367
    9      C      -2.3922271320    -0.0048634020    -0.0000668217
   10      H      -1.9097122940     2.0476073885     0.0003425192
   11      H      -1.9865413456    -2.1884812300     0.0001458232
   12      H      -3.4701598878     0.1236444727    -0.0002577447
   13      H       3.0802955219     1.2723988532    -0.0000938064
   14      H       0.8897611275     2.5130966981     0.0001869318
   15      H       3.1376004406    -1.2109530757    -0.0000184010
   16      H       1.0073867404    -2.5391720956    -0.0001297872
 ----------------------------------------------------------------
 Molecular Point Group                 C1    NOp =  1
 Largest Abelian Subgroup              C1    NOp =  1
 Nuclear Repulsion Energy =         398.51414990 hartrees
 There are       31 alpha and       31 beta electrons
 Applying Cartesian multipole field
    Component          Value
    ---------          -----
     (2,0,0)        1.00000E-11
     (0,2,0)        2.00000E-11
     (0,0,2)       -3.00000E-11
 Nucleus-field energy     =     0.0000000119 hartrees
 Requested basis set is 6-31+G(d)
 There are 59 shells and 185 basis functions
 A cutoff of  1.0D-12 yielded   1657 shell pairs
 There are     17105 function pairs
 Smallest overlap matrix eigenvalue = 1.31E-06
 Guess MOs from SCF MO coefficient file

 -----------------------------------------------------------------------
  General SCF calculation program by
  Eric Jon Sundstrom, Paul Horn, Yuezhi Mao, Dmitri Zuev, Alec White,
  David Stuck, Shaama M.S., Shane Yost, Joonho Lee, David Small,
  Daniel Levine, Susi Lehtola, Hugh Burton, Evgeny Epifanovsky,
  Bang C. Huynh
 -----------------------------------------------------------------------
 Exchange:     0.2500 Hartree-Fock + 0.7500 PBE
 Correlation:  1.0000 PBE
 Using SG-1 standard quadrature grid
 using 4 threads for integral computing
 -------------------------------------------------------
 OpenMP Integral computing Module                
 Release: version 1.0, May 2013, Q-Chem Inc. Pittsburgh 
 -------------------------------------------------------
 A restricted SCF calculation will be
 performed using DIIS
 SCF converges when DIIS error is below 1.0e-08
 ---------------------------------------
  Cycle       Energy         DIIS error
 ---------------------------------------
    1    -363.3979848349      6.41e-04  
    2    -363.3996695974      1.52e-04  
    3    -363.3996693151      1.51e-04  
    4    -363.3997681916      2.97e-05  
    5    -363.3997718387      1.02e-05  
    6    -363.3997722865      4.29e-06  
    7    -363.3997723702      8.01e-07  
    8    -363.3997723727      4.84e-07  
    9    -363.3997723737      7.85e-08  
   10    -363.3997723738      3.73e-08  
   11    -363.3997723738      1.09e-08  
   12    -363.3997723738      3.22e-09  Convergence criterion met
 ---------------------------------------
 SCF time:   CPU 36.30s  wall 9.00s 
 SCF   energy in the final basis set =     -363.3997723738
 Total energy in the final basis set =     -363.3997723738
 
 Direct TDDFT/TDA calculation will be performed
 Exchange:     0.2500 Hartree-Fock + 0.7500 PBE
 Correlation:  1.0000 PBE
 Using SG-1 standard quadrature grid
 Singlet excitation energies requested
 CIS energy converged when residual is below 10e- 6
 ---------------------------------------------------
 Iter    Rts Conv    Rts Left    Ttl Dev     Max Dev
 ---------------------------------------------------
   1         0           3      0.003729    0.001850
   2         0           3      0.001712    0.000955
   3         0           3      0.000369    0.000251
   4         0           3      0.000151    0.000110
   5         0           3      0.000052    0.000037
   6         1           2      0.000013    0.000009
   7         1           2      0.000005    0.000004
   8         2           1      0.000002    0.000001
   9         3           0      0.000001    0.000000    Roots Converged
 ---------------------------------------------------
 
 ---------------------------------------------------
         TDDFT/TDA Excitation Energies              
 ---------------------------------------------------

 Excited state   1: excitation energy (eV) =    4.7660
 Total energy for state  1:                  -363.22462510 au
    Multiplicity: Singlet
    Trans. Mom.:  0.8138 X  -0.6663 Y   0.0002 Z
    Strength   :     0.1291683865
    D(   30) --> V(    3) amplitude =  0.2406
    D(   31) --> V(    1) amplitude =  0.9135

 Excited state   2: excitation energy (eV) =    4.8354
 Total energy for state  2:                  -363.22207369 au
    Multiplicity: Singlet
    Trans. Mom.: -0.0012 X   0.0011 Y   0.1364 Z
    Strength   :     0.0022035206
    D(   31) --> V(    2) amplitude =  0.9947

 Excited state   3: excitation energy (eV) =    4.9230
 Total energy for state  3:                  -363.21885673 au
    Multiplicity: Singlet
    Trans. Mom.:  0.1041 X   0.2442 Y  -0.0001 Z
    Strength   :     0.0084979199
    D(   30) --> V(    1) amplitude =  0.7516
    D(   31) --> V(    3) amplitude = -0.6281
 
 ---------------------------------------------------
 Calculating Relaxed Density
 ---------------------------------------------------
 Iter    Rts Conv    Rts Left    Ttl Dev     Max Dev
 ---------------------------------------------------
   1         0           3      0.001488    0.000790
   2         0           3      0.000564    0.000251
   3         0           3      0.000140    0.000064
   4         0           3      0.000040    0.000018
   5         1           2      0.000008    0.000004
   6         1           2      0.000002    0.000001
   7         3           0      0.000000    0.000000    Roots Converged
 ---------------------------------------------------
  SETman timing summary (seconds)
  CPU time               123.01s
  System time              0.00s
  Wall time               31.14s
 
 --------------------------------------------------------------
 
                    Orbital Energies (a.u.)
 --------------------------------------------------------------
 
 Alpha MOs
 -- Occupied --
-14.4585 -10.2770 -10.2736 -10.2455 -10.2403 -10.2400 -10.2395 -10.2363
-10.2298  -1.0186  -0.8623  -0.8045  -0.7611  -0.7349  -0.6474  -0.6153
 -0.5999  -0.5569  -0.5018  -0.4862  -0.4528  -0.4455  -0.4415  -0.4199
 -0.4068  -0.3682  -0.3496  -0.3475  -0.2910  -0.2378  -0.2108
 -- Virtual --
 -0.0172   0.0028   0.0219   0.0247   0.0306   0.0451   0.0465   0.0510
  0.0670   0.0687   0.0733   0.0743   0.0937   0.0966   0.1146   0.1151
  0.1190   0.1343   0.1426   0.1447   0.1603   0.1655   0.1730   0.1744
  0.1803   0.1890   0.1946   0.1959   0.2037   0.2079   0.2091   0.2096
  0.2262   0.2312   0.2407   0.2424   0.2459   0.2541   0.2626   0.2695
  0.2791   0.2806   0.2876   0.3040   0.3050   0.3128   0.3256   0.3414
  0.3588   0.3708   0.3839   0.4040   0.4362   0.4582   0.5238   0.5831
  0.6216   0.6889   0.6918   0.7160   0.7318   0.7394   0.7437   0.7506
  0.7539   0.7717   0.7758   0.7944   0.8090   0.8091   0.8291   0.8698
  0.9041   0.9129   0.9246   0.9558   0.9607   0.9703   0.9765   1.0024
  1.0137   1.0443   1.0611   1.0639   1.1049   1.1243   1.1264   1.1853
  1.1910   1.2163   1.2372   1.2457   1.2572   1.3274   1.3353   1.3551
  1.3783   1.4221   1.4253   1.4595   1.4724   1.4817   1.5050   1.5091
  1.5552   1.5955   1.6598   1.7894   1.8414   1.9000   1.9076   1.9234
  1.9444   1.9973   2.0039   2.0179   2.0637   2.0852   2.1428   2.1691
  2.1709   2.1920   2.2548   2.2568   2.2728   2.2955   2.3226   2.3802
  2.4246   2.4656   2.5480   2.5676   2.6477   2.6609   2.6632   2.6965
  2.7352   2.8144   2.8491   2.8587   2.9700   2.9874   3.1088   3.2545
  3.4247   4.1783   4.2749   4.3180   4.3470   4.3884   4.4267   4.5066
  4.5477   4.8064
 --------------------------------------------------------------
 
          Ground-State Mulliken Net Atomic Charges

     Atom                 Charge (a.u.)
  ----------------------------------------
      1 C                    -0.016707
      2 C                    -0.504362
      3 C                    -0.171649
      4 C                    -1.151621
      5 C                     1.533435
      6 C                    -0.722052
      7 N                    -0.424499
      8 C                    -0.033176
      9 C                    -0.220201
     10 H                     0.437173
     11 H                     0.218019
     12 H                     0.219119
     13 H                     0.206901
     14 H                     0.208354
     15 H                     0.206669
     16 H                     0.214597
  ----------------------------------------
  Sum of atomic charges =     0.000000

 -----------------------------------------------------------------
                    Cartesian Multipole Moments
 -----------------------------------------------------------------
    Charge (ESU x 10^10)
                -0.0000
    Dipole Moment (Debye)
         X      -1.6224      Y       1.7366      Z       0.0002
       Tot       2.3765
    Quadrupole Moments (Debye-Ang)
        XX     -44.6578     XY      -3.7879     YY     -43.8605
        XZ       0.0008     YZ       0.0012     ZZ     -59.1096
    Octopole Moments (Debye-Ang^2)
       XXX     -15.5153    XXY       9.4601    XYY      -8.3613
       YYY      11.3115    XXZ      -0.0039    XYZ      -0.0021
       YYZ       0.0015    XZZ      -2.3373    YZZ       2.3401
       ZZZ      -0.0062
    Hexadecapole Moments (Debye-Ang^3)
      XXXX    -809.8412   XXXY     -23.5706   XXYY    -195.4815
      XYYY     -18.9483   YYYY    -369.1383   XXXZ       0.0322
      XXYZ      -0.0006   XYYZ       0.0025   YYYZ      -0.0008
      XXZZ    -191.1458   XYZZ      -3.4266   YYZZ     -94.9334
      XZZZ       0.0220   YZZZ      -0.0086   ZZZZ     -72.9385
 -----------------------------------------------------------------
 Calculating analytic gradient of the CIS energy
 CIS relaxed dipole moment
            1
    1  -0.8348606
    2   0.5177929
    3   0.0002914
	Magnitude:	 0.982 au	 2.497 Debye
 CIS 3 State Energy is -363.2188567332
 Gradient of the state energy (including CIS Excitation Energy)
            1           2           3           4           5           6
    1  -0.0036652  -0.0012677  -0.0107159   0.0084589   0.0024862   0.0077572
    2   0.0067909  -0.0180496  -0.0050391  -0.0136153   0.0151674   0.0057817
    3   0.0000101  -0.0000093  -0.0000074   0.0000298  -0.0000322  -0.0000194
            7           8           9          10          11          12
    1  -0.0202507   0.0135854   0.0161593  -0.0089565  -0.0005034  -0.0030323
    2  -0.0388082  -0.0096499   0.0383401   0.0192666  -0.0021471   0.0025875
    3   0.0000002   0.0000464  -0.0000298   0.0000037   0.0000008  -0.0000043
           13          14          15          16
    1   0.0010017  -0.0016749   0.0008151  -0.0001972
    2   0.0005726   0.0001464  -0.0002284  -0.0011155
    3   0.0000001   0.0000033   0.0000025   0.0000055
 Gradient time:  CPU 22.33 s  wall 5.62 s
 Geometry Optimization Parameters
   NAtoms,    NIC,     NZ,  NCons,   NDum,   NFix, NCnnct, MaxDiis
       16     116       0       0       0       0       0       0

 Cartesian Hessian Update
 Hessian updated using BFGS update


** GEOMETRY OPTIMIZATION IN DELOCALIZED INTERNAL COORDINATES **
   Searching for a Minimum

   Optimization Cycle:   3

                       Coordinates (Angstroms)
     ATOM                X               Y               Z
      1  C         2.1788630318   -0.6986056483   -0.0000777250
      2  C         2.1466647133    0.7155092338   -0.0000918809
      3  C         0.9174259117    1.4268027714    0.0000475474
      4  C        -0.2516855259    0.6735443388    0.0002664865
      5  C        -0.2454902102   -0.7632368173    0.0000405053
      6  C         0.9827504706   -1.4519663744   -0.0001791427
      7  N        -1.5763111826    1.0697999133    0.0001768406
      8  C        -1.6055254284   -1.1725725340    0.0002346367
      9  C        -2.3922271320   -0.0048634020   -0.0000668217
     10  H        -1.9097122940    2.0476073885    0.0003425192
     11  H        -1.9865413456   -2.1884812300    0.0001458232
     12  H        -3.4701598878    0.1236444727   -0.0002577447
     13  H         3.0802955219    1.2723988532   -0.0000938064
     14  H         0.8897611275    2.5130966981    0.0001869318
     15  H         3.1376004406   -1.2109530757   -0.0000184010
     16  H         1.0073867404   -2.5391720956   -0.0001297872
   Point Group: c1    Number of degrees of freedom:    42


   Energy is   -363.218856733

 Hessian updated using BFGS update

 41 Hessian modes will be used to form the next step
  Hessian Eigenvalues:
     0.018594    0.019738    0.020011    0.020794    0.021683    0.022200
     0.022636    0.023004    0.023236    0.023608    0.023851    0.023984
     0.024127    0.159598    0.159965    0.160000    0.160000    0.160000
     0.161972    0.218313    0.220513    0.226568    0.245787    0.252362
     0.356645    0.357163    0.357578    0.357801    0.362863    0.364150
     0.368297    0.376610    0.414764    0.427537    0.441935    0.450416
     0.459828    0.473288    0.476302    0.493313    0.546427

 Minimum search - taking simple RFO step
 Searching for Lamda that Minimizes Along All modes
 Value Taken    Lamda =  -0.00655083
 Step Taken.  Stepsize is  0.124813

                             Maximum     Tolerance    Cnvgd?
         Gradient           0.026310      0.000300      NO
         Displacement       0.066259      0.001200      NO
         Energy change     -0.006245      0.000001      NO


 New Cartesian Coordinates Obtained by Inverse Iteration

 Displacement from previous Coordinates is:  0.171229
 ----------------------------------------------------------------
             Standard Nuclear Orientation (Angstroms)
    I     Atom           X                Y                Z
 ----------------------------------------------------------------
    1      C       2.1657506625    -0.6919573628    -0.0000313595
    2      C       2.1534338311     0.7361377405    -0.0000387280
    3      C       0.9327300608     1.4479640683    -0.0000504468
    4      C      -0.2463599083     0.6852601039     0.0001179149
    5      C      -0.2605951630    -0.7705919370     0.0000819512
    6      C       0.9662738786    -1.4559986289    -0.0000414381
    7      N      -1.5601870554     1.0731171548     0.0001737273
    8      C      -1.6230623141    -1.1767323283    -0.0000129876
    9      C      -2.4018135498    -0.0286336085     0.0001100649
   10      H      -1.8735951234     2.0297087660     0.0002752849
   11      H      -2.0028690161    -2.1889104115    -0.0001925957
   12      H      -3.4751892779     0.0881158065     0.0001291582
   13      H       3.0909052761     1.2813880197    -0.0000215183
   14      H       0.9164650209     2.5335232503     0.0000627584
   15      H       3.1201975247    -1.2091510463     0.0000145458
   16      H       1.0010101046    -2.5406870941    -0.0000503506
 ----------------------------------------------------------------
 Molecular Point Group                 C1    NOp =  1
 Largest Abelian Subgroup              C1    NOp =  1
 Nuclear Repulsion Energy =         397.53710097 hartrees
 There are       31 alpha and       31 beta electrons
 Applying Cartesian multipole field
    Component          Value
    ---------          -----
     (2,0,0)        1.00000E-11
     (0,2,0)        2.00000E-11
     (0,0,2)       -3.00000E-11
 Nucleus-field energy     =     0.0000000119 hartrees
 Requested basis set is 6-31+G(d)
 There are 59 shells and 185 basis functions
 A cutoff of  1.0D-12 yielded   1656 shell pairs
 There are     17099 function pairs
 Smallest overlap matrix eigenvalue = 1.41E-06
 Guess MOs from SCF MO coefficient file

 -----------------------------------------------------------------------
  General SCF calculation program by
  Eric Jon Sundstrom, Paul Horn, Yuezhi Mao, Dmitri Zuev, Alec White,
  David Stuck, Shaama M.S., Shane Yost, Joonho Lee, David Small,
  Daniel Levine, Susi Lehtola, Hugh Burton, Evgeny Epifanovsky,
  Bang C. Huynh
 -----------------------------------------------------------------------
 Exchange:     0.2500 Hartree-Fock + 0.7500 PBE
 Correlation:  1.0000 PBE
 Using SG-1 standard quadrature grid
 using 4 threads for integral computing
 -------------------------------------------------------
 OpenMP Integral computing Module                
 Release: version 1.0, May 2013, Q-Chem Inc. Pittsburgh 
 -------------------------------------------------------
 A restricted SCF calculation will be
 performed using DIIS
 SCF converges when DIIS error is below 1.0e-08
 ---------------------------------------
  Cycle       Energy         DIIS error
 ---------------------------------------
    1    -363.3979245275      6.94e-04  
    2    -363.4002828170      1.42e-04  
    3    -363.4002720764      1.49e-04  
    4    -363.4003614265      3.83e-05  
    5    -363.4003667087      1.74e-05  
    6    -363.4003681543      3.17e-06  
    7    -363.4003682041      1.11e-06  
    8    -363.4003682091      2.78e-07  
    9    -363.4003682095      1.21e-07  
   10    -363.4003682095      3.83e-08  
   11    -363.4003682095      1.57e-08  
   12    -363.4003682095      2.93e-09  Convergence criterion met
 ---------------------------------------
 SCF time:   CPU 35.88s  wall 9.00s 
 SCF   energy in the final basis set =     -363.4003682095
 Total energy in the final basis set =     -363.4003682095
 
 Direct TDDFT/TDA calculation will be performed
 Exchange:     0.2500 Hartree-Fock + 0.7500 PBE
 Correlation:  1.0000 PBE
 Using SG-1 standard quadrature grid
 Singlet excitation energies requested
 CIS energy converged when residual is below 10e- 6
 ---------------------------------------------------
 Iter    Rts Conv    Rts Left    Ttl Dev     Max Dev
 ---------------------------------------------------
   1         0           3      0.003732    0.001840
   2         0           3      0.001534    0.000822
   3         0           3      0.000320    0.000158
   4         0           3      0.000128    0.000066
   5         0           3      0.000045    0.000024
   6         1           2      0.000011    0.000005
   7         1           2      0.000004    0.000002
   8         3           0      0.000001    0.000001    Roots Converged
 ---------------------------------------------------
 
 ---------------------------------------------------
         TDDFT/TDA Excitation Energies              
 ---------------------------------------------------

 Excited state   1: excitation energy (eV) =    4.8346
 Total energy for state  1:                  -363.22270112 au
    Multiplicity: Singlet
    Trans. Mom.:  0.1101 X   0.5017 Y  -0.0000 Z
    Strength   :     0.0312503046
    D(   30) --> V(    1) amplitude =  0.7314
    D(   31) --> V(    1) amplitude = -0.4066
    D(   31) --> V(    3) amplitude = -0.4910

 Excited state   2: excitation energy (eV) =    4.9031
 Total energy for state  2:                  -363.22018385 au
    Multiplicity: Singlet
    Trans. Mom.:  0.7807 X  -0.5121 Y   0.0000 Z
    Strength   :     0.1047277531
    D(   30) --> V(    1) amplitude =  0.2985
    D(   30) --> V(    3) amplitude =  0.2525
    D(   31) --> V(    1) amplitude =  0.8154
    D(   31) --> V(    3) amplitude = -0.3521

 Excited state   3: excitation energy (eV) =    5.0742
 Total energy for state  3:                  -363.21389605 au
    Multiplicity: Singlet
    Trans. Mom.:  0.0000 X  -0.0000 Y  -0.1436 Z
    Strength   :     0.0025645671
    D(   31) --> V(    2) amplitude =  0.9940
 
 ---------------------------------------------------
 Calculating Relaxed Density
 ---------------------------------------------------
 Iter    Rts Conv    Rts Left    Ttl Dev     Max Dev
 ---------------------------------------------------
   1         0           3      0.001441    0.000748
   2         0           3      0.000547    0.000240
   3         0           3      0.000136    0.000057
   4         0           3      0.000038    0.000019
   5         0           3      0.000009    0.000004
   6         3           0      0.000000    0.000000    Roots Converged
 ---------------------------------------------------
  SETman timing summary (seconds)
  CPU time               114.64s
  System time              0.00s
  Wall time               28.86s
 
 --------------------------------------------------------------
 
                    Orbital Energies (a.u.)
 --------------------------------------------------------------
 
 Alpha MOs
 -- Occupied --
-14.4551 -10.2772 -10.2764 -10.2461 -10.2419 -10.2415 -10.2408 -10.2370
-10.2312  -1.0133  -0.8579  -0.8089  -0.7548  -0.7396  -0.6459  -0.6170
 -0.5998  -0.5557  -0.5050  -0.4847  -0.4511  -0.4453  -0.4381  -0.4227
 -0.4089  -0.3680  -0.3498  -0.3438  -0.2944  -0.2315  -0.2165
 -- Virtual --
 -0.0177   0.0056   0.0198   0.0249   0.0300   0.0450   0.0462   0.0508
  0.0672   0.0687   0.0738   0.0747   0.0931   0.0969   0.1146   0.1147
  0.1200   0.1340   0.1425   0.1465   0.1618   0.1656   0.1734   0.1737
  0.1790   0.1901   0.1943   0.1947   0.2039   0.2062   0.2082   0.2085
  0.2260   0.2316   0.2388   0.2431   0.2469   0.2522   0.2642   0.2693
  0.2780   0.2807   0.2877   0.3011   0.3053   0.3134   0.3233   0.3381
  0.3526   0.3729   0.3846   0.4048   0.4355   0.4579   0.5207   0.5763
  0.6132   0.6884   0.6917   0.7168   0.7248   0.7385   0.7437   0.7499
  0.7549   0.7704   0.7707   0.7939   0.8074   0.8090   0.8281   0.8685
  0.9063   0.9143   0.9270   0.9547   0.9607   0.9697   0.9765   1.0023
  1.0111   1.0465   1.0643   1.0789   1.1050   1.1225   1.1256   1.1806
  1.1920   1.2147   1.2371   1.2466   1.2560   1.3290   1.3304   1.3534
  1.3779   1.4199   1.4206   1.4532   1.4699   1.4830   1.5052   1.5075
  1.5458   1.5959   1.6561   1.7975   1.8401   1.8997   1.9030   1.9231
  1.9367   2.0012   2.0062   2.0179   2.0582   2.0717   2.1400   2.1483
  2.1623   2.2037   2.2439   2.2529   2.2703   2.2791   2.3156   2.3740
  2.4236   2.4609   2.5475   2.5604   2.6404   2.6475   2.6633   2.6928
  2.7296   2.8082   2.8428   2.8540   2.9750   2.9816   3.1145   3.2461
  3.4063   4.1726   4.2696   4.3208   4.3497   4.3878   4.4267   4.5042
  4.5459   4.7982
 --------------------------------------------------------------
 
          Ground-State Mulliken Net Atomic Charges

     Atom                 Charge (a.u.)
  ----------------------------------------
      1 C                    -0.016753
      2 C                    -0.491942
      3 C                    -0.170950
      4 C                    -1.089872
      5 C                     1.462760
      6 C                    -0.770352
      7 N                    -0.451291
      8 C                     0.040404
      9 C                    -0.227216
     10 H                     0.437295
     11 H                     0.220220
     12 H                     0.220395
     13 H                     0.208389
     14 H                     0.209733
     15 H                     0.204425
     16 H                     0.214755
  ----------------------------------------
  Sum of atomic charges =     0.000000

 -----------------------------------------------------------------
                    Cartesian Multipole Moments
 -----------------------------------------------------------------
    Charge (ESU x 10^10)
                 0.0000
    Dipole Moment (Debye)
         X      -1.6263      Y       1.5859      Z       0.0003
       Tot       2.2716
    Quadrupole Moments (Debye-Ang)
        XX     -44.7129     XY      -3.0968     YY     -43.7877
        XZ      -0.0000     YZ       0.0014     ZZ     -59.1449
    Octopole Moments (Debye-Ang^2)
       XXX     -15.5311    XXY       8.5156    XYY      -7.8510
       YYY      10.3500    XXZ       0.0000    XYZ      -0.0024
       YYZ      -0.0008    XZZ      -2.4075    YZZ       2.0753
       ZZZ      -0.0055
    Hexadecapole Moments (Debye-Ang^3)
      XXXX    -809.9505   XXXY     -22.3477   XXYY    -196.6294
      XYYY     -20.8368   YYYY    -372.6032   XXXZ       0.0131
      XXYZ       0.0033   XYYZ       0.0048   YYYZ       0.0032
      XXZZ    -191.3042   XYZZ      -4.6511   YYZZ     -95.5507
      XZZZ       0.0163   YZZZ      -0.0052   ZZZZ     -72.9706
 -----------------------------------------------------------------
 Calculating analytic gradient of the CIS energy
 CIS relaxed dipole moment
            1
    1   2.3627736
    2  -2.6513752
    3  -0.0003399
	Magnitude:	 3.551 au	 9.027 Debye
 CIS 3 State Energy is -363.2138960533
 Gradient of the state energy (including CIS Excitation Energy)
            1           2           3           4           5           6
    1   0.0094045   0.0070130   0.0179845  -0.0135676  -0.0047176  -0.0137867
    2  -0.0156498   0.0350345   0.0135130   0.0181946  -0.0212665  -0.0146494
    3   0.0000012   0.0000028  -0.0000269   0.0000072   0.0000195  -0.0000104
            7           8           9          10          11          12
    1   0.0300532  -0.0217199  -0.0292812   0.0138260   0.0006199   0.0034156
    2   0.0623025   0.0094385  -0.0567133  -0.0297577   0.0020705  -0.0042374
    3   0.0000049  -0.0000049  -0.0000010  -0.0000023  -0.0000029  -0.0000009
           13          14          15          16
    1  -0.0005643   0.0024389  -0.0001048  -0.0010133
    2   0.0001782   0.0010937   0.0000479   0.0004006
    3   0.0000009   0.0000083   0.0000027   0.0000017
 Gradient time:  CPU 22.23 s  wall 5.60 s
 Geometry Optimization Parameters
   NAtoms,    NIC,     NZ,  NCons,   NDum,   NFix, NCnnct, MaxDiis
       16     116       0       0       0       0       0       0

 Cartesian Hessian Update
 Hessian updated using BFGS update


** GEOMETRY OPTIMIZATION IN DELOCALIZED INTERNAL COORDINATES **
   Searching for a Minimum

   Optimization Cycle:   4

                       Coordinates (Angstroms)
     ATOM                X               Y               Z
      1  C         2.1657506625   -0.6919573628   -0.0000313595
      2  C         2.1534338311    0.7361377405   -0.0000387280
      3  C         0.9327300608    1.4479640683   -0.0000504468
      4  C        -0.2463599083    0.6852601039    0.0001179149
      5  C        -0.2605951630   -0.7705919370    0.0000819512
      6  C         0.9662738786   -1.4559986289   -0.0000414381
      7  N        -1.5601870554    1.0731171548    0.0001737273
      8  C        -1.6230623141   -1.1767323283   -0.0000129876
      9  C        -2.4018135498   -0.0286336085    0.0001100649
     10  H        -1.8735951234    2.0297087660    0.0002752849
     11  H        -2.0028690161   -2.1889104115   -0.0001925957
     12  H        -3.4751892779    0.0881158065    0.0001291582
     13  H         3.0909052761    1.2813880197   -0.0000215183
     14  H         0.9164650209    2.5335232503    0.0000627584
     15  H         3.1201975247   -1.2091510463    0.0000145458
     16  H         1.0010101046   -2.5406870941   -0.0000503506
   Point Group: c1    Number of degrees of freedom:    42


   Energy is   -363.213896053

 Hessian updated using BFGS update

 40 Hessian modes will be used to form the next step
  Hessian Eigenvalues:
     0.018594    0.019738    0.020011    0.020794    0.021683    0.022200
     0.022636    0.023004    0.023236    0.023608    0.023851    0.023984
     0.024127    0.159767    0.159997    0.160000    0.160437    0.162356
     0.220133    0.221648    0.226613    0.247135    0.253510    0.356653
     0.357163    0.357560    0.357965    0.363643    0.364280    0.369916
     0.380545    0.412931    0.427380    0.448851    0.457866    0.473135
     0.475845    0.478470    0.508172    1.267140

 Minimum search - taking simple RFO step
 Searching for Lamda that Minimizes Along All modes
 Value Taken    Lamda =  -0.00670568
 Step Taken.  Stepsize is  0.075127

                             Maximum     Tolerance    Cnvgd?
         Gradient           0.043788      0.000300      NO
         Displacement       0.040020      0.001200      NO
         Energy change      0.004961      0.000001      NO


 New Cartesian Coordinates Obtained by Inverse Iteration

 Displacement from previous Coordinates is:  0.106151
 ----------------------------------------------------------------
             Standard Nuclear Orientation (Angstroms)
    I     Atom           X                Y                Z
 ----------------------------------------------------------------
    1      C       2.1702723554    -0.6942165401    -0.0000223337
    2      C       2.1455611042     0.7215873055    -0.0000219103
    3      C       0.9224866559     1.4327574043     0.0000035253
    4      C      -0.2492394078     0.6783815643     0.0001108314
    5      C      -0.2514076457    -0.7657022049     0.0000632797
    6      C       0.9756299990    -1.4507407044    -0.0000181647
    7      N      -1.5678522891     1.0711654114     0.0001127008
    8      C      -1.6113960563    -1.1727652868    -0.0000343817
    9      C      -2.3934488662    -0.0153185033     0.0001208856
   10      H      -1.8929294978     2.0395437427     0.0002677857
   11      H      -1.9926592637    -2.1860497790    -0.0001871187
   12      H      -3.4687668733     0.1077932676     0.0001657309
   13      H       3.0805832699     1.2725188861    -0.0000326713
   14      H       0.9013673751     2.5180798000     0.0000603108
   15      H       3.1265254573    -1.2084211960    -0.0000133033
   16      H       1.0083686343    -2.5360606749    -0.0000491853
 ----------------------------------------------------------------
 Molecular Point Group                 C1    NOp =  1
 Largest Abelian Subgroup              C1    NOp =  1
 Nuclear Repulsion Energy =         398.61525999 hartrees
 There are       31 alpha and       31 beta electrons
 Applying Cartesian multipole field
    Component          Value
    ---------          -----
     (2,0,0)        1.00000E-11
     (0,2,0)        2.00000E-11
     (0,0,2)       -3.00000E-11
 Nucleus-field energy     =     0.0000000119 hartrees
 Requested basis set is 6-31+G(d)
 There are 59 shells and 185 basis functions
 A cutoff of  1.0D-12 yielded   1657 shell pairs
 There are     17105 function pairs
 Smallest overlap matrix eigenvalue = 1.33E-06
 Guess MOs from SCF MO coefficient file

 -----------------------------------------------------------------------
  General SCF calculation program by
  Eric Jon Sundstrom, Paul Horn, Yuezhi Mao, Dmitri Zuev, Alec White,
  David Stuck, Shaama M.S., Shane Yost, Joonho Lee, David Small,
  Daniel Levine, Susi Lehtola, Hugh Burton, Evgeny Epifanovsky,
  Bang C. Huynh
 -----------------------------------------------------------------------
 Exchange:     0.2500 Hartree-Fock + 0.7500 PBE
 Correlation:  1.0000 PBE
 Using SG-1 standard quadrature grid
 using 4 threads for integral computing
 -------------------------------------------------------
 OpenMP Integral computing Module                
 Release: version 1.0, May 2013, Q-Chem Inc. Pittsburgh 
 -------------------------------------------------------
 A restricted SCF calculation will be
 performed using DIIS
 SCF converges when DIIS error is below 1.0e-08
 ---------------------------------------
  Cycle       Energy         DIIS error
 ---------------------------------------
    1    -363.4004872397      4.09e-04  
    2    -363.4012764740      9.27e-05  
    3    -363.4012727849      9.56e-05  
    4    -363.4013109284      2.26e-05  
    5    -363.4013127661      1.04e-05  
    6    -363.4013132792      2.28e-06  
    7    -363.4013133027      7.75e-07  
    8    -363.4013133054      2.30e-07  
    9    -363.4013133056      1.13e-07  
   10    -363.4013133057      3.24e-08  
   11    -363.4013133057      1.03e-08  
   12    -363.4013133057      1.66e-09  Convergence criterion met
 ---------------------------------------
 SCF time:   CPU 36.07s  wall 9.00s 
 SCF   energy in the final basis set =     -363.4013133057
 Total energy in the final basis set =     -363.4013133057
 
 Direct TDDFT/TDA calculation will be performed
 Exchange:     0.2500 Hartree-Fock + 0.7500 PBE
 Correlation:  1.0000 PBE
 Using SG-1 standard quadrature grid
 Singlet excitation energies requested
 CIS energy converged when residual is below 10e- 6
 ---------------------------------------------------
 Iter    Rts Conv    Rts Left    Ttl Dev     Max Dev
 ---------------------------------------------------
   1         0           3      0.003730    0.001852
   2         0           3      0.001508    0.000855
   3         0           3      0.000333    0.000212
   4         0           3      0.000136    0.000091
   5         0           3      0.000046    0.000032
   6         1           2      0.000012    0.000008
   7         1           2      0.000005    0.000003
   8         3           0      0.000001    0.000001    Roots Converged
 ---------------------------------------------------
 
 ---------------------------------------------------
         TDDFT/TDA Excitation Energies              
 ---------------------------------------------------

 Excited state   1: excitation energy (eV) =    4.8380
 Total energy for state  1:                  -363.22352090 au
    Multiplicity: Singlet
    Trans. Mom.:  0.7459 X  -0.6871 Y  -0.0000 Z
    Strength   :     0.1219085118
    D(   30) --> V(    3) amplitude =  0.2579
    D(   31) --> V(    1) amplitude =  0.9160

 Excited state   2: excitation energy (eV) =    4.9089
 Total energy for state  2:                  -363.22091554 au
    Multiplicity: Singlet
    Trans. Mom.:  0.3063 X   0.1949 Y  -0.0000 Z
    Strength   :     0.0158524624
    D(   30) --> V(    1) amplitude =  0.7673
    D(   31) --> V(    3) amplitude = -0.6218

 Excited state   3: excitation energy (eV) =    4.9430
 Total energy for state  3:                  -363.21966134 au
    Multiplicity: Singlet
    Trans. Mom.: -0.0002 X   0.0002 Y  -0.1410 Z
    Strength   :     0.0024078910
    D(   31) --> V(    2) amplitude =  0.9945
 
 ---------------------------------------------------
 Calculating Relaxed Density
 ---------------------------------------------------
 Iter    Rts Conv    Rts Left    Ttl Dev     Max Dev
 ---------------------------------------------------
   1         0           3      0.001440    0.000784
   2         0           3      0.000542    0.000256
   3         0           3      0.000141    0.000064
   4         0           3      0.000042    0.000023
   5         1           2      0.000008    0.000004
   6         1           2      0.000002    0.000001
   7         3           0      0.000000    0.000000    Roots Converged
 ---------------------------------------------------
  SETman timing summary (seconds)
  CPU time               118.67s
  System time              0.00s
  Wall time               29.86s
 
 --------------------------------------------------------------
 
                    Orbital Energies (a.u.)
 --------------------------------------------------------------
 
 Alpha MOs
 -- Occupied --
-14.4567 -10.2765 -10.2741 -10.2449 -10.2400 -10.2399 -10.2393 -10.2355
-10.2299  -1.0167  -0.8614  -0.8069  -0.7590  -0.7374  -0.6471  -0.6162
 -0.6003  -0.5567  -0.5030  -0.4859  -0.4522  -0.4456  -0.4404  -0.4215
 -0.4078  -0.3681  -0.3495  -0.3465  -0.2927  -0.2353  -0.2133
 -- Virtual --
 -0.0170   0.0041   0.0217   0.0248   0.0304   0.0452   0.0465   0.0513
  0.0671   0.0688   0.0738   0.0745   0.0936   0.0968   0.1147   0.1151
  0.1195   0.1343   0.1427   0.1457   0.1612   0.1656   0.1735   0.1745
  0.1800   0.1897   0.1947   0.1958   0.2040   0.2075   0.2090   0.2095
  0.2265   0.2318   0.2402   0.2429   0.2465   0.2537   0.2637   0.2696
  0.2791   0.2808   0.2879   0.3038   0.3062   0.3140   0.3252   0.3404
  0.3570   0.3725   0.3851   0.4053   0.4373   0.4592   0.5236   0.5823
  0.6206   0.6886   0.6917   0.7164   0.7295   0.7390   0.7449   0.7512
  0.7543   0.7714   0.7743   0.7945   0.8093   0.8094   0.8292   0.8697
  0.9056   0.9139   0.9263   0.9555   0.9610   0.9701   0.9768   1.0025
  1.0137   1.0458   1.0636   1.0693   1.1052   1.1250   1.1256   1.1839
  1.1924   1.2166   1.2376   1.2459   1.2576   1.3288   1.3335   1.3541
  1.3791   1.4212   1.4250   1.4580   1.4715   1.4820   1.5056   1.5092
  1.5529   1.5972   1.6596   1.7941   1.8424   1.9023   1.9068   1.9277
  1.9424   2.0015   2.0066   2.0189   2.0649   2.0826   2.1465   2.1632
  2.1693   2.1991   2.2559   2.2566   2.2713   2.2902   2.3220   2.3803
  2.4263   2.4652   2.5514   2.5673   2.6463   2.6601   2.6647   2.6974
  2.7354   2.8147   2.8501   2.8595   2.9758   2.9863   3.1154   3.2546
  3.4246   4.1771   4.2762   4.3199   4.3492   4.3894   4.4274   4.5069
  4.5477   4.8057
 --------------------------------------------------------------
 
          Ground-State Mulliken Net Atomic Charges

     Atom                 Charge (a.u.)
  ----------------------------------------
      1 C                    -0.012523
      2 C                    -0.502934
      3 C                    -0.164585
      4 C                    -1.125733
      5 C                     1.503471
      6 C                    -0.750559
      7 N                    -0.438169
      8 C                     0.003666
      9 C                    -0.224206
     10 H                     0.437344
     11 H                     0.218846
     12 H                     0.219445
     13 H                     0.207176
     14 H                     0.208774
     15 H                     0.205539
     16 H                     0.214448
  ----------------------------------------
  Sum of atomic charges =     0.000000

 -----------------------------------------------------------------
                    Cartesian Multipole Moments
 -----------------------------------------------------------------
    Charge (ESU x 10^10)
                -0.0000
    Dipole Moment (Debye)
         X      -1.6195      Y       1.6697      Z       0.0003
       Tot       2.3261
    Quadrupole Moments (Debye-Ang)
        XX     -44.6951     XY      -3.4991     YY     -43.8473
        XZ      -0.0006     YZ       0.0014     ZZ     -59.0640
    Octopole Moments (Debye-Ang^2)
       XXX     -15.4485    XXY       8.9830    XYY      -8.1242
       YYY      10.9074    XXZ       0.0001    XYZ      -0.0026
       YYZ      -0.0010    XZZ      -2.3190    YZZ       2.2161
       ZZZ      -0.0058
    Hexadecapole Moments (Debye-Ang^3)
      XXXX    -808.3264   XXXY     -22.9036   XXYY    -195.4656
      XYYY     -19.6696   YYYY    -369.7272   XXXZ       0.0044
      XXYZ       0.0034   XYYZ       0.0023   YYYZ       0.0024
      XXZZ    -190.6010   XYZZ      -3.8745   YYZZ     -94.8741
      XZZZ       0.0120   YZZZ      -0.0057   ZZZZ     -72.7751
 -----------------------------------------------------------------
 Calculating analytic gradient of the CIS energy
 CIS relaxed dipole moment
            1
    1   2.4031036
    2  -2.6550167
    3  -0.0001483
	Magnitude:	 3.581 au	 9.102 Debye
 CIS 3 State Energy is -363.2196613404
 Gradient of the state energy (including CIS Excitation Energy)
            1           2           3           4           5           6
    1   0.0090632   0.0057744   0.0116233  -0.0107499   0.0011328  -0.0126908
    2  -0.0084441   0.0221718   0.0086173   0.0118866  -0.0144241  -0.0092858
    3  -0.0000008   0.0000008  -0.0000118   0.0000053   0.0000154  -0.0000006
            7           8           9          10          11          12
    1   0.0234125  -0.0180374  -0.0231784   0.0100131   0.0004141   0.0025018
    2   0.0466796   0.0093802  -0.0445358  -0.0211097   0.0009117  -0.0028232
    3  -0.0000117  -0.0000117   0.0000129   0.0000007  -0.0000024  -0.0000005
           13          14          15          16
    1  -0.0000710   0.0012644   0.0000996  -0.0005715
    2  -0.0000867   0.0009403   0.0000444   0.0000774
    3   0.0000004   0.0000034   0.0000012  -0.0000005
 Gradient time:  CPU 22.27 s  wall 5.60 s
 Geometry Optimization Parameters
   NAtoms,    NIC,     NZ,  NCons,   NDum,   NFix, NCnnct, MaxDiis
       16     116       0       0       0       0       0       0

 Cartesian Hessian Update
 Hessian updated using BFGS update


** GEOMETRY OPTIMIZATION IN DELOCALIZED INTERNAL COORDINATES **
   Searching for a Minimum

   Optimization Cycle:   5

                       Coordinates (Angstroms)
     ATOM                X               Y               Z
      1  C         2.1702723554   -0.6942165401   -0.0000223337
      2  C         2.1455611042    0.7215873055   -0.0000219103
      3  C         0.9224866559    1.4327574043    0.0000035253
      4  C        -0.2492394078    0.6783815643    0.0001108314
      5  C        -0.2514076457   -0.7657022049    0.0000632797
      6  C         0.9756299990   -1.4507407044   -0.0000181647
      7  N        -1.5678522891    1.0711654114    0.0001127008
      8  C        -1.6113960563   -1.1727652868   -0.0000343817
      9  C        -2.3934488662   -0.0153185033    0.0001208856
     10  H        -1.8929294978    2.0395437427    0.0002677857
     11  H        -1.9926592637   -2.1860497790   -0.0001871187
     12  H        -3.4687668733    0.1077932676    0.0001657309
     13  H         3.0805832699    1.2725188861   -0.0000326713
     14  H         0.9013673751    2.5180798000    0.0000603108
     15  H         3.1265254573   -1.2084211960   -0.0000133033
     16  H         1.0083686343   -2.5360606749   -0.0000491853
   Point Group: c1    Number of degrees of freedom:    42


   Energy is   -363.219661340

 Hessian updated using BFGS update

 41 Hessian modes will be used to form the next step
  Hessian Eigenvalues:
     0.018594    0.019738    0.020011    0.020794    0.021683    0.022200
     0.022636    0.023004    0.023236    0.023608    0.023851    0.023984
     0.024127    0.158335    0.159807    0.159997    0.160000    0.160168
     0.162576    0.212211    0.220754    0.226960    0.245544    0.255442
     0.329132    0.356969    0.357167    0.357602    0.358217    0.363937
     0.367198    0.371094    0.385485    0.420631    0.427382    0.449477
     0.468531    0.475947    0.477910    0.492517    0.528215

 Minimum search - taking simple RFO step
 Searching for Lamda that Minimizes Along All modes
 Value Taken    Lamda =  -0.01297308
 Step Taken.  Stepsize is  0.201606

                             Maximum     Tolerance    Cnvgd?
         Gradient           0.031168      0.000300      NO
         Displacement       0.094359      0.001200      NO
         Energy change     -0.005765      0.000001      NO


 New Cartesian Coordinates Obtained by Inverse Iteration

 Displacement from previous Coordinates is:  0.266867
 ----------------------------------------------------------------
             Standard Nuclear Orientation (Angstroms)
    I     Atom           X                Y                Z
 ----------------------------------------------------------------
    1      C       2.1675404677    -0.7034117559    -0.0000545623
    2      C       2.1173060797     0.6907176116    -0.0000274555
    3      C       0.8976538142     1.4057110718     0.0000344194
    4      C      -0.2525345689     0.6648062018     0.0001297892
    5      C      -0.2324471209    -0.7575208059     0.0000421360
    6      C       0.9968606254    -1.4475556213    -0.0000795232
    7      N      -1.5850856483     1.0641820506     0.0001676823
    8      C      -1.5734458320    -1.1697741382     0.0000819119
    9      C      -2.3573172364     0.0227998623     0.0000180835
   10      H      -1.9466256443     2.0609340981     0.0003014140
[...]
    3  -0.0000008   0.0000010  -0.0000000  -0.0000001  -0.0000002   0.0000005
            7           8           9          10          11          12
    1   0.0226995  -0.0176767  -0.0217727   0.0093506   0.0003057   0.0023493
    2   0.0428705   0.0098751  -0.0422173  -0.0198230   0.0007894  -0.0025248
    3   0.0000013   0.0000004  -0.0000011  -0.0000008   0.0000001  -0.0000002
           13          14          15          16
    1   0.0000107   0.0011584   0.0001582  -0.0004409
    2  -0.0000662   0.0009503  -0.0000291  -0.0000375
    3   0.0000001  -0.0000000  -0.0000001  -0.0000001
 Gradient time:  CPU 22.74 s  wall 6.17 s
 Geometry Optimization Parameters
   NAtoms,    NIC,     NZ,  NCons,   NDum,   NFix, NCnnct, MaxDiis
       16     116       0       0       0       0       0       0

 Cartesian Hessian Update
 Hessian updated using BFGS update


** GEOMETRY OPTIMIZATION IN DELOCALIZED INTERNAL COORDINATES **
   Searching for a Minimum

   Optimization Cycle:  49

                       Coordinates (Angstroms)
     ATOM                X               Y               Z
      1  C         2.1714689152   -0.6923679175   -0.0000453238
      2  C         2.1459167327    0.7195662205    0.0000162367
      3  C         0.9212608245    1.4296181084    0.0000750403
      4  C        -0.2496508315    0.6762513995    0.0000692405
      5  C        -0.2502085812   -0.7659196452    0.0000057776
      6  C         0.9762411424   -1.4491681092   -0.0000508891
      7  N        -1.5679703201    1.0688361104    0.0001179245
      8  C        -1.6115257274   -1.1722500739    0.0000191522
      9  C        -2.3924987033   -0.0137286928    0.0000902400
     10  H        -1.8952567146    2.0392019245    0.0001690557
     11  H        -1.9941951541   -2.1852351157   -0.0000150431
     12  H        -3.4678842530    0.1128246352    0.0001207221
     13  H         3.0799725332    1.2723831157    0.0000195842
     14  H         0.8992707389    2.5149758156    0.0001227188
     15  H         3.1272182577   -1.2078124670   -0.0000895741
     16  H         1.0109360917   -2.5346228159   -0.0000988814
   Point Group: c1    Number of degrees of freedom:    42


   Energy is   -363.220308465

 Hessian updated using BFGS update

 40 Hessian modes will be used to form the next step
  Hessian Eigenvalues:
     0.018594    0.019738    0.020011    0.020794    0.021683    0.022200
     0.022636    0.023004    0.023236    0.023984    0.024127    0.156201
     0.159820    0.160003    0.160055    0.160142    0.160677    0.162431
     0.205971    0.221489    0.238890    0.244794    0.255356    0.284493
     0.356937    0.357169    0.357618    0.358086    0.364055    0.364984
     0.374352    0.392303    0.420322    0.428746    0.449855    0.471036
     0.475354    0.484313    0.590268    1.199767

 Minimum search - taking simple RFO step
 Searching for Lamda that Minimizes Along All modes
 Value Taken    Lamda =  -0.01304614
 Step Taken.  Stepsize is  0.221534

                             Maximum     Tolerance    Cnvgd?
         Gradient           0.029773      0.000300      NO
         Displacement       0.110236      0.001200      NO
         Energy change     -0.006660      0.000001      NO


 New Cartesian Coordinates Obtained by Inverse Iteration

 Displacement from previous Coordinates is:  0.281112
 ----------------------------------------------------------------
             Standard Nuclear Orientation (Angstroms)
    I     Atom           X                Y                Z
 ----------------------------------------------------------------
    1      C       2.1731236376    -0.7089845754    -0.0000504017
    2      C       2.1178443566     0.6852947450     0.0000128808
    3      C       0.8964386537     1.4008521712     0.0000896680
    4      C      -0.2506529179     0.6678790991     0.0000856341
    5      C      -0.2299631349    -0.7536860154     0.0000033087
    6      C       1.0024088081    -1.4440203137    -0.0000665276
    7      N      -1.5949032182     1.0696824402     0.0001169774
    8      C      -1.5657397507    -1.1702014721     0.0000385593
    9      C      -2.3633119782     0.0294081374     0.0000824535
   10      H      -1.9587598119     2.0699882945     0.0001519556
   11      H      -1.9584710140    -2.1805975676     0.0000118303
   12      H      -3.4462324816     0.1518935643     0.0001024041
   13      H       3.0438640351     1.2534898568     0.0000132355
   14      H       0.8785424252     2.4847421308     0.0001382356
   15      H       3.1343441134    -1.2130922505    -0.0000911805
   16      H       1.0245632289    -2.5300957522    -0.0001130518
 ----------------------------------------------------------------
 Molecular Point Group                 C1    NOp =  1
 Largest Abelian Subgroup              C1    NOp =  1
 Nuclear Repulsion Energy =         401.42394474 hartrees
 There are       31 alpha and       31 beta electrons
 Applying Cartesian multipole field
    Component          Value
    ---------          -----
     (2,0,0)        1.00000E-11
     (0,2,0)        2.00000E-11
     (0,0,2)       -3.00000E-11
 Nucleus-field energy     =     0.0000000117 hartrees
 Requested basis set is 6-31+G(d)
 There are 59 shells and 185 basis functions
 A cutoff of  1.0D-12 yielded   1658 shell pairs
 There are     17111 function pairs
 Smallest overlap matrix eigenvalue = 1.15E-06
 Guess MOs from SCF MO coefficient file

 -----------------------------------------------------------------------
  General SCF calculation program by
  Eric Jon Sundstrom, Paul Horn, Yuezhi Mao, Dmitri Zuev, Alec White,
  David Stuck, Shaama M.S., Shane Yost, Joonho Lee, David Small,
  Daniel Levine, Susi Lehtola, Hugh Burton, Evgeny Epifanovsky,
  Bang C. Huynh
 -----------------------------------------------------------------------
 Exchange:     0.2500 Hartree-Fock + 0.7500 PBE
 Correlation:  1.0000 PBE
 Using SG-1 standard quadrature grid
 using 4 threads for integral computing
 -------------------------------------------------------
 OpenMP Integral computing Module                
 Release: version 1.0, May 2013, Q-Chem Inc. Pittsburgh 
 -------------------------------------------------------
 A restricted SCF calculation will be
 performed using DIIS
 SCF converges when DIIS error is below 1.0e-08
 ---------------------------------------
  Cycle       Energy         DIIS error
 ---------------------------------------
    1    -363.3814274171      1.10e-03  
    2    -363.3882392286      2.50e-04  
    3    -363.3882652407      2.34e-04  
    4    -363.3884852805      8.81e-05  
    5    -363.3885157347      2.92e-05  
    6    -363.3885196374      8.27e-06  
    7    -363.3885199414      3.01e-06  
    8    -363.3885199816      8.85e-07  
    9    -363.3885199850      3.73e-07  
   10    -363.3885199857      9.27e-08  
   11    -363.3885199857      3.61e-08  
   12    -363.3885199857      7.65e-09  Convergence criterion met
 ---------------------------------------
 SCF time:   CPU 36.86s  wall 9.00s 
 SCF   energy in the final basis set =     -363.3885199857
 Total energy in the final basis set =     -363.3885199857
 
 Direct TDDFT/TDA calculation will be performed
 Exchange:     0.2500 Hartree-Fock + 0.7500 PBE
 Correlation:  1.0000 PBE
 Using SG-1 standard quadrature grid
 Singlet excitation energies requested
 CIS energy converged when residual is below 10e- 6
 ---------------------------------------------------
 Iter    Rts Conv    Rts Left    Ttl Dev     Max Dev
 ---------------------------------------------------
   1         0           3      0.002162    0.001839
   2         0           3      0.000595    0.000508
   3         0           3      0.000186    0.000157
   4         0           3      0.000069    0.000059
   5         1           2      0.000031    0.000025
   6         1           2      0.000018    0.000014
   7         1           2      0.000013    0.000011
   8         1           2      0.000410    0.000405
   9         1           2      0.000170    0.000168
  10         2           1      0.000049    0.000048
  11         2           1      0.000015    0.000014
  12         2           1      0.000006    0.000006
  13         2           1      0.000002    0.000001
  14         3           0      0.000001    0.000000    Roots Converged
 ---------------------------------------------------
 
 ---------------------------------------------------
         TDDFT/TDA Excitation Energies              
 ---------------------------------------------------

 Excited state   1: excitation energy (eV) =    4.4495
 Total energy for state  1:                  -363.22500390 au
    Multiplicity: Singlet
    Trans. Mom.: -0.0000 X   0.0000 Y  -0.1203 Z
    Strength   :     0.0015774748
    D(   31) --> V(    2) amplitude =  0.9956

 Excited state   2: excitation energy (eV) =    4.6354
 Total energy for state  2:                  -363.21817361 au
    Multiplicity: Singlet
    Trans. Mom.:  1.0127 X  -0.6438 Y  -0.0001 Z
    Strength   :     0.1635438950
    D(   31) --> V(    1) amplitude =  0.9112
    D(   31) --> V(    4) amplitude =  0.2307

 Excited state   3: excitation energy (eV) =    5.0489
 Total energy for state  3:                  -363.20297559 au
    Multiplicity: Singlet
    Trans. Mom.: -0.4045 X   0.1279 Y   0.0000 Z
    Strength   :     0.0222688546
    D(   30) --> V(    1) amplitude = -0.6650
    D(   31) --> V(    4) amplitude =  0.7051
 
 ---------------------------------------------------
 Calculating Relaxed Density
 ---------------------------------------------------
 Iter    Rts Conv    Rts Left    Ttl Dev     Max Dev
 ---------------------------------------------------
   1         0           3      0.001552    0.000738
   2         0           3      0.000583    0.000277
   3         0           3      0.000149    0.000071
   4         0           3      0.000037    0.000020
   5         1           2      0.000009    0.000005
   6         2           1      0.000002    0.000002
   7         3           0      0.000000    0.000000    Roots Converged
 ---------------------------------------------------
  SETman timing summary (seconds)
  CPU time               142.86s
  System time              0.00s
  Wall time               36.47s
 
 --------------------------------------------------------------
 
                    Orbital Energies (a.u.)
 --------------------------------------------------------------
 
 Alpha MOs
 -- Occupied --
-14.4640 -10.2757 -10.2690 -10.2415 -10.2359 -10.2337 -10.2336 -10.2309
-10.2253  -1.0295  -0.8715  -0.8024  -0.7715  -0.7287  -0.6493  -0.6160
 -0.6007  -0.5601  -0.4982  -0.4880  -0.4588  -0.4481  -0.4477  -0.4154
 -0.4003  -0.3673  -0.3547  -0.3492  -0.2891  -0.2467  -0.2015
 -- Virtual --
 -0.0138  -0.0016   0.0243   0.0264   0.0313   0.0457   0.0469   0.0527
  0.0665   0.0688   0.0725   0.0751   0.0943   0.0962   0.1147   0.1162
  0.1178   0.1346   0.1415   0.1434   0.1590   0.1661   0.1731   0.1763
  0.1820   0.1864   0.1953   0.1984   0.2027   0.2097   0.2114   0.2140
  0.2274   0.2320   0.2414   0.2435   0.2462   0.2559   0.2601   0.2702
  0.2784   0.2811   0.2922   0.3065   0.3097   0.3178   0.3297   0.3493
  0.3658   0.3735   0.3886   0.4082   0.4444   0.4610   0.5330   0.5955
  0.6393   0.6894   0.6916   0.7139   0.7361   0.7401   0.7482   0.7526
  0.7631   0.7745   0.7896   0.7954   0.8111   0.8163   0.8348   0.8728
  0.9018   0.9137   0.9256   0.9573   0.9629   0.9728   0.9750   1.0038
  1.0224   1.0322   1.0557   1.0627   1.1062   1.1245   1.1343   1.1933
  1.1942   1.2217   1.2371   1.2457   1.2634   1.3233   1.3483   1.3594
  1.3829   1.4303   1.4342   1.4686   1.4748   1.4801   1.5087   1.5178
  1.5614   1.5981   1.6732   1.7726   1.8499   1.8969   1.9115   1.9346
  1.9599   2.0008   2.0145   2.0236   2.0745   2.1145   2.1669   2.1723
  2.1843   2.2147   2.2528   2.2803   2.2984   2.3303   2.3545   2.3986
  2.4453   2.4812   2.5483   2.5851   2.6624   2.6685   2.6911   2.7153
  2.7562   2.8329   2.8669   2.8788   2.9687   3.0093   3.1207   3.2723
  3.4716   4.1901   4.2897   4.3224   4.3443   4.3940   4.4329   4.5134
  4.5525   4.8223
 --------------------------------------------------------------
 
          Ground-State Mulliken Net Atomic Charges

     Atom                 Charge (a.u.)
  ----------------------------------------
      1 C                    -0.009244
      2 C                    -0.520341
      3 C                    -0.180782
      4 C                    -1.177297
      5 C                     1.569578
      6 C                    -0.688049
      7 N                    -0.380362
      8 C                    -0.087159
      9 C                    -0.225722
     10 H                     0.436143
     11 H                     0.215469
     12 H                     0.215851
     13 H                     0.202623
     14 H                     0.207915
     15 H                     0.207927
     16 H                     0.213452
  ----------------------------------------
  Sum of atomic charges =     0.000000

 -----------------------------------------------------------------
                    Cartesian Multipole Moments
 -----------------------------------------------------------------
    Charge (ESU x 10^10)
                -0.0000
    Dipole Moment (Debye)
         X      -1.6918      Y       1.9639      Z       0.0001
       Tot       2.5921
    Quadrupole Moments (Debye-Ang)
        XX     -44.7059     XY      -4.6475     YY     -43.8411
        XZ      -0.0005     YZ       0.0007     ZZ     -58.8787
    Octopole Moments (Debye-Ang^2)
       XXX     -16.1024    XXY      10.4071    XYY      -9.0656
       YYY      12.6821    XXZ      -0.0012    XYZ      -0.0004
       YYZ      -0.0011    XZZ      -2.1845    YZZ       2.6350
       ZZZ      -0.0059
    Hexadecapole Moments (Debye-Ang^3)
      XXXX    -802.4434   XXXY     -24.2992   XXYY    -191.2960
      XYYY     -16.0733   YYYY    -364.3350   XXXZ       0.0053
      XXYZ      -0.0001   XYYZ       0.0017   YYYZ      -0.0038
      XXZZ    -188.1771   XYZZ      -1.8109   YYZZ     -93.8016
      XZZZ       0.0115   YZZZ      -0.0093   ZZZZ     -72.4806
 -----------------------------------------------------------------
 Calculating analytic gradient of the CIS energy
 CIS relaxed dipole moment
            1
    1  -1.0097445
    2   0.5639949
    3   0.0000149
	Magnitude:	 1.157 au	 2.940 Debye
 CIS 3 State Energy is -363.2029755913
 Gradient of the state energy (including CIS Excitation Energy)
            1           2           3           4           5           6
    1  -0.0227773  -0.0127643  -0.0206624   0.0201659  -0.0099674   0.0322321
    2   0.0092929  -0.0368799  -0.0147921  -0.0213701   0.0266642   0.0155552
    3   0.0000011  -0.0000020   0.0000006   0.0000005  -0.0000010  -0.0000014
            7           8           9          10          11          12
    1  -0.0460230   0.0373989   0.0482903  -0.0193740  -0.0001926  -0.0048376
    2  -0.0905738  -0.0173015   0.0887415   0.0388148  -0.0016478   0.0053514
    3  -0.0000020   0.0000018   0.0000005   0.0000011   0.0000002   0.0000001
           13          14          15          16
    1   0.0000220  -0.0023692  -0.0003427   0.0012013
    2  -0.0000053  -0.0020299  -0.0000332   0.0002136
    3  -0.0000000  -0.0000002   0.0000001   0.0000004
 Gradient time:  CPU 22.58 s  wall 5.68 s
 Geometry Optimization Parameters
   NAtoms,    NIC,     NZ,  NCons,   NDum,   NFix, NCnnct, MaxDiis
       16     116       0       0       0       0       0       0

 Cartesian Hessian Update
 Hessian updated using BFGS update


** GEOMETRY OPTIMIZATION IN DELOCALIZED INTERNAL COORDINATES **
   Searching for a Minimum

   Optimization Cycle:  50

                       Coordinates (Angstroms)
     ATOM                X               Y               Z
      1  C         2.1731236376   -0.7089845754   -0.0000504017
      2  C         2.1178443566    0.6852947450    0.0000128808
      3  C         0.8964386537    1.4008521712    0.0000896680
      4  C        -0.2506529179    0.6678790991    0.0000856341
      5  C        -0.2299631349   -0.7536860154    0.0000033087
      6  C         1.0024088081   -1.4440203137   -0.0000665276
      7  N        -1.5949032182    1.0696824402    0.0001169774
      8  C        -1.5657397507   -1.1702014721    0.0000385593
      9  C        -2.3633119782    0.0294081374    0.0000824535
     10  H        -1.9587598119    2.0699882945    0.0001519556
     11  H        -1.9584710140   -2.1805975676    0.0000118303
     12  H        -3.4462324816    0.1518935643    0.0001024041
     13  H         3.0438640351    1.2534898568    0.0000132355
     14  H         0.8785424252    2.4847421308    0.0001382356
     15  H         3.1343441134   -1.2130922505   -0.0000911805
     16  H         1.0245632289   -2.5300957522   -0.0001130518
   Point Group: c1    Number of degrees of freedom:    42


   Energy is   -363.202975591

 Hessian updated using BFGS update

 42 Hessian modes will be used to form the next step
  Hessian Eigenvalues:
     0.018594    0.019738    0.020011    0.020794    0.021683    0.022200
     0.022636    0.023004    0.023236    0.023608    0.023851    0.023984
     0.024127    0.159817    0.160001    0.160040    0.160106    0.160530
     0.160818    0.162840    0.221487    0.221867    0.242672    0.247388
     0.255812    0.356770    0.357164    0.357606    0.357971    0.363856
     0.364424    0.372309    0.391351    0.416246    0.428405    0.449659
     0.466021    0.474695    0.483049    0.494054    0.995638    1.201576

 Minimum search - taking simple RFO step
 Searching for Lamda that Minimizes Along All modes
 Value Taken    Lamda =  -0.01784917
 Step Taken.  Stepsize is  0.144981

                             Maximum     Tolerance    Cnvgd?
         Gradient           0.062211      0.000300      NO
         Displacement       0.073015      0.001200      NO
         Energy change      0.017333      0.000001      NO


 New Cartesian Coordinates Obtained by Inverse Iteration

 Displacement from previous Coordinates is:  0.185636
 ----------------------------------------------------------------
             Standard Nuclear Orientation (Angstroms)
    I     Atom           X                Y                Z
 ----------------------------------------------------------------
    1      C       2.1731278546    -0.6983477603    -0.0000463362
    2      C       2.1368652001     0.7075038344     0.0000146558
    3      C       0.9133366200     1.4196911307     0.0000822989
    4      C      -0.2497527506     0.6738599978     0.0000781124
    5      C      -0.2430555166    -0.7611387300     0.0000044130
    6      C       0.9850342980    -1.4467639102    -0.0000589020
    7      N      -1.5776471370     1.0698506377     0.0001162908
    8      C      -1.5956937859    -1.1723704601     0.0000266371
    9      C      -2.3826626073     0.0006450485     0.0000894018
   10      H      -1.9183809177     2.0504745609     0.0001557472
   11      H      -1.9827904270    -2.1841182825    -0.0000051427
   12      H      -3.4608257660     0.1247313421     0.0001174380
   13      H       3.0677153600     1.2664827246     0.0000158358
   14      H       0.8934433625     2.5045892095     0.0001304855
   15      H       3.1307052758    -1.2099903063    -0.0000877231
   16      H       1.0136758885    -2.5325465442    -0.0001072310
 ----------------------------------------------------------------
 Molecular Point Group                 C1    NOp =  1
 Largest Abelian Subgroup              C1    NOp =  1
 Nuclear Repulsion Energy =         399.62137207 hartrees
 There are       31 alpha and       31 beta electrons


 *******************************************
 **  MAXIMUM OPTIMIZATION CYCLES REACHED  **
 *******************************************

 Q-Chem fatal error occurred in module 0, line  455:

 Maximum optimization cycles reached

