
Running Job 1 of 1 QfuncsM06-2X-VI-1st.in
qchem QfuncsM06-2X-VI-1st.in_67348.0 /scratch/scaparas/job_3585153/qchem67348/ 0
/cm/shared/apps/spack/cpu/opt/spack/linux-centos8-zen2/gcc-10.2.0/qchem-5.3-5qddma6gy34jvefiv7mbcb7qm253n45r/exe/qcprog.exe_s QfuncsM06-2X-VI-1st.in_67348.0 /scratch/scaparas/job_3585153/qchem67348/
                  Welcome to Q-Chem
     A Quantum Leap Into The Future Of Chemistry


 Q-Chem 5.3, Q-Chem, Inc., Pleasanton, CA (2020)

 License issued to: University of California, San Diego (site)

 Yihan Shao,  Zhengting Gan,  E. Epifanovsky,  A. T. B. Gilbert,  M. Wormit,  
 J. Kussmann,  A. W. Lange,  A. Behn,  Jia Deng,  Xintian Feng,  D. Ghosh,  
 M. Goldey,  P. R. Horn,  L. D. Jacobson,  I. Kaliman,  T. Kus,  A. Landau,  
 Jie Liu,  E. I. Proynov,  R. M. Richard,  R. P. Steele,  E. J. Sundstrom,  
 H. L. Woodcock III,  P. M. Zimmerman,  D. Zuev,  B. Alam,  B. Albrecht,  
 A. Aldossary,  E. Alguire,  S. A. Baeppler,  D. Barton,  Z. Benda,  
 Y. A. Bernard,  E. J. Berquist,  K. B. Bravaya,  H. Burton,  K. Carter-Fenk,  
 D. Casanova,  Chun-Min Chang,  Yunqing Chen,  A. Chien,  K. D. Closser,  
 M. P. Coons,  S. Coriani,  S. Dasgupta,  A. L. Dempwolff,  M. Diedenhofen,  
 Hainam Do,  R. G. Edgar,  Po-Tung Fang,  S. Faraji,  S. Fatehi,  
 Qingguo Feng,  J. Fosso-Tande,  J. Gayvert,  Qinghui Ge,  A. Ghysels,  
 G. Gidofalvi,  J. Gomes,  J. Gonthier,  S. Gulania,  A. Gunina,  D. Hait,  
 M. W. D. Hanson-Heine,  S. Hammes-Schiffer,  P. H. P. Harbach,  
 A. W. Hauser,  M. F. Herbst,  J. E. Herr,  E. G. Hohenstein,  Z. C. Holden,  
 S. Houck,  Kerwin Hui,  B. C. Huynh,  M. Ivanov,  T.-C. Jagau,  Hyunjun Ji,  
 B. Kaduk,  K. Khistyaev,  Jaehoon Kim,  P. Klunzinger,  K. Koh,  
 D. Kosenkov,  L. Koulias,  T. Kowalczyk,  C. M. Krauter,  A. Kunitsa,  
 Ka Un Lao,  A. Laurent,  K. V. Lawler,  Joonho Lee,  D. Lefrancois,  
 S. Lehtola,  D. S. Levine,  Yi-Pei Li,  You-Sheng Lin,  Fenglai Liu,  
 Kuan-Yu Liu,  E. Livshits,  M. Loipersberger,  A. Luenser,  P. Manohar,  
 E. Mansoor,  S. F. Manzer,  Shan-Ping Mao,  Yuezhi Mao,  N. Mardirossian,  
 A. V. Marenich,  T. Markovich,  L. A. Martinez-Martinez,  S. A. Maurer,  
 N. J. Mayhall,  S. C. McKenzie,  J.-M. Mewes,  P. Morgante,  A. F. Morrison,  
 J. W. Mullinax,  K. Nanda,  T. S. Nguyen-Beck,  R. Olivares-Amaya,  
 K. J. Oosterbaan,  J. A. Parkhill,  S. K. Paul,  F. Pavosevic,  Zheng Pei,  
 T. M. Perrine,  F. Plasser,  P. Pokhilko,  S. Prager,  A. Prociuk,  
 E. Ramos,  B. Rana,  D. R. Rehn,  F. Rob,  E. Rossomme,  M. Scheurer,  
 M. Schneider,  N. Sergueev,  S. M. Sharada,  S. Sharma,  W. Skomorowski,  
 D. W. Small,  T. Stauch,  C. J. Stein,  T. Stein,  Yu-Chuan Su,  
 S. P. Veccham,  Zhen Tao,  A. J. W. Thom,  A. Tkatchenko,  T. Tsuchimochi,  
 N. M. Tubman,  L. Vogt,  M. L. Vidal,  O. Vydrov,  M. A. Watson,  J. Wenzel,  
 M. de Wergifosse,  T. A. Wesolowski,  A. White,  J. Witte,  A. Yamada,  
 Jun Yang,  K. Yao,  S. Yeganeh,  S. R. Yost,  Zhi-Qiang You,  A. Zech,  
 Igor Ying Zhang,  Xing Zhang,  Yan Zhao,  Ying Zhu,  B. R. Brooks,  
 G. K. L. Chan,  C. J. Cramer,  M. S. Gordon,  W. J. Hehre,  A. Klamt,  
 M. W. Schmidt,  C. D. Sherrill,  D. G. Truhlar,  A. Aspuru-Guzik,  R. Baer,  
 A. T. Bell,  N. A. Besley,  Jeng-Da Chai,  A. E. DePrince, III,  
 R. A. DiStasio Jr.,  A. Dreuw,  B. D. Dunietz,  T. R. Furlani,  
 Chao-Ping Hsu,  Yousung Jung,  Jing Kong,  D. S. Lambrecht,  WanZhen Liang,  
 C. Ochsenfeld,  V. A. Rassolov,  L. V. Slipchenko,  J. E. Subotnik,  
 T. Van Voorhis,  J. M. Herbert,  A. I. Krylov,  P. M. W. Gill,  M. Head-Gordon

 Contributors to earlier versions of Q-Chem not listed above: 
 R. D. Adamson,  B. Austin,  J. Baker,  G. J. O. Beran,  K. Brandhorst,  
 S. T. Brown,  E. F. C. Byrd,  A. K. Chakraborty,  C.-L. Cheng,  
 Siu Hung Chien,  D. M. Chipman,  D. L. Crittenden,  H. Dachsel,  
 R. J. Doerksen,  A. D. Dutoi,  L. Fusti-Molnar,  W. A. Goddard III,  
 A. Golubeva-Zadorozhnaya,  S. R. Gwaltney,  G. Hawkins,  A. Heyden,  
 S. Hirata,  G. Kedziora,  F. J. Keil,  C. Kelley,  Jihan Kim,  R. A. King,  
 R. Z. Khaliullin,  P. P. Korambath,  W. Kurlancheek,  A. M. Lee,  M. S. Lee,  
 S. V. Levchenko,  Ching Yeh Lin,  D. Liotard,  R. C. Lochan,  I. Lotan,  
 P. E. Maslen,  N. Nair,  D. P. O'Neill,  D. Neuhauser,  E. Neuscamman,  
 C. M. Oana,  R. Olson,  B. Peters,  R. Peverati,  P. A. Pieniazek,  
 Y. M. Rhee,  J. Ritchie,  M. A. Rohrdanz,  E. Rosta,  N. J. Russ,  
 H. F. Schaefer III,  N. E. Schultz,  N. Shenvi,  A. C. Simmonett,  A. Sodt,  
 D. Stuck,  K. S. Thanthiriwatte,  V. Vanovschi,  Tao Wang,  A. Warshel,  
 C. F. Williams,  Q. Wu,  X. Xu,  W. Zhang

 Please cite Q-Chem as follows:
 Y. Shao et al., Mol. Phys. 113, 184-215 (2015)
 DOI: 10.1080/00268976.2014.952696

 Q-Chem 5.3.1 for Intel X86 EM64T Linux

 Parts of Q-Chem use Armadillo 9.800.1 (Horizon Scraper).
 http://arma.sourceforge.net/

 Q-Chem begins on Wed Jun 23 13:40:46 2021  

Host: 
0

     Scratch files written to /scratch/scaparas/job_3585153/qchem67348//
 Aug2920 |scratch|qcdevops|jenkins|workspace|build_RNUM    
Processing $rem in /cm/shared/apps/spack/cpu/opt/spack/linux-centos8-zen2/gcc-10.2.0/qchem-5.3-5qddma6gy34jvefiv7mbcb7qm253n45r/config/preferences:
Processing $rem in /home/scaparas/.qchemrc:

Checking the input file for inconsistencies... 	...done.

--------------------------------------------------------------
User input:
--------------------------------------------------------------
$molecule
0 1
C   -2.1510630    0.6892080    0.0000880
C   -2.1279270   -0.7158180    0.0000750
C   -0.9322970   -1.4131000   -0.0000110
C    0.2469110   -0.6702010   -0.0000420
C    0.2481930    0.7482990    0.0000000
C   -0.9794740    1.4235260    0.0000320
N    1.5617740   -1.0775920   -0.0002850
C    1.6201330    1.1629000   -0.0001570
C    2.3820130    0.0308060    0.0002480
H    1.8763150   -2.0300110    0.0004380
H    1.9921730    2.1730100   -0.0003480
H    3.4525490   -0.0824250    0.0004080
H   -3.0615940   -1.2620200    0.0000880
H   -0.9172520   -2.4953420   -0.0000730
H   -3.1042030    1.2007850    0.0000900
H   -1.0093480    2.5054210   -0.0000150
$end

$rem
BASIS  =  6-31+G*
GUI  =  2
JOB_TYPE  =  Optimization
METHOD  = M06-2X
SCF_CONVERGENCE  =  8
THRESH = 12
CIS_N_ROOTS  = 3
CIS_SINGLETS = true
CIS_TRIPLETS = false
CIS_STATE_DERIV = 1
MEM_STATIC = 500
MEM_TOTAL = 3000
$end
--------------------------------------------------------------
 ----------------------------------------------------------------
             Standard Nuclear Orientation (Angstroms)
    I     Atom           X                Y                Z
 ----------------------------------------------------------------
    1      C       2.1510629040    -0.6892079969     0.0000583065
    2      C       2.1279268385     0.7158180020     0.0000481775
    3      C       0.9322968051     1.4130999466    -0.0000206639
    4      C      -0.2469111607     0.6702008918    -0.0000373513
    5      C      -0.2481930942    -0.7482991083     0.0000020775
    6      C       0.9794739374    -1.4235260513     0.0000165335
    7      N      -1.5617741827     1.0775918311    -0.0002621374
    8      C      -1.6201330769    -1.1629001718    -0.0001374500
    9      C      -2.3820131241    -0.0308062080     0.0002797387
   10      H      -1.8763152174     2.0300108152     0.0004667797
   11      H      -1.9921730325    -2.1730101887    -0.0003253498
   12      H      -3.4525491271     0.0824247420     0.0004541695
   13      H       3.0615938132     1.2620200454     0.0000497686
   14      H       0.9172517540     2.4953419460    -0.0000804893
   15      H       3.1042029277    -1.2007849526     0.0000467087
   16      H       1.0093479871    -2.5054210498    -0.0000328375
 ----------------------------------------------------------------
 Molecular Point Group                 C1    NOp =  1
 Largest Abelian Subgroup              C1    NOp =  1
 Nuclear Repulsion Energy =         401.33686680 hartrees
 There are       31 alpha and       31 beta electrons
 Requested basis set is 6-31+G(d)
 There are 59 shells and 185 basis functions

 Total QAlloc Memory Limit   3000 MB
 Mega-Array Size       489 MB
 MEM_STATIC part       500 MB
 A cutoff of  1.0D-12 yielded   1657 shell pairs
 There are     17105 function pairs
 Smallest overlap matrix eigenvalue = 1.26E-06

 Scale SEOQF with 1.000000e-01/1.000000e-01/1.000000e-01

 Standard Electronic Orientation quadrupole field applied
 Nucleus-field energy     =     0.0000000117 hartrees
 Guess from superposition of atomic densities
 Warning:  Energy on first SCF cycle will be non-variational
 SAD guess density has 62.000000 electrons

 -----------------------------------------------------------------------
  General SCF calculation program by
  Eric Jon Sundstrom, Paul Horn, Yuezhi Mao, Dmitri Zuev, Alec White,
  David Stuck, Shaama M.S., Shane Yost, Joonho Lee, David Small,
  Daniel Levine, Susi Lehtola, Hugh Burton, Evgeny Epifanovsky,
  Bang C. Huynh
 -----------------------------------------------------------------------
 Exchange:     0.5400 Hartree-Fock + 1.0000 M06-2X
 Correlation:  1.0000 M06-2X
 Using SG-3 standard quadrature grid
 using 4 threads for integral computing
 -------------------------------------------------------
 OpenMP Integral computing Module                
 Release: version 1.0, May 2013, Q-Chem Inc. Pittsburgh 
 -------------------------------------------------------
 A restricted SCF calculation will be
 performed using DIIS
 SCF converges when DIIS error is below 1.0e-08
 ---------------------------------------
  Cycle       Energy         DIIS error
 ---------------------------------------
    1    -366.8054562241      5.66e-02  
    2    -363.5894056040      4.05e-03  
    3    -363.6118420095      3.52e-03  
    4    -363.6670374853      8.84e-04  
    5    -363.6699374204      3.65e-04  
    6    -363.6704860012      5.34e-05  
    7    -363.6704969210      2.29e-05  
    8    -363.6704994196      4.18e-06  
    9    -363.6704995298      2.24e-06  
   10    -363.6704995651      6.05e-07  
   11    -363.6704995701      2.96e-07  
   12    -363.6704995707      7.86e-08  
   13    -363.6704995707      3.77e-08  
   14    -363.6704995708      1.25e-08  
   15    -363.6704995708      3.19e-09  Convergence criterion met
 ---------------------------------------
 SCF time:   CPU 278.30s  wall 121.00s 
 SCF   energy in the final basis set =     -363.6704995708
 Total energy in the final basis set =     -363.6704995708
 
 Direct TDDFT/TDA calculation will be performed
 Exchange:     0.5400 Hartree-Fock + 1.0000 M06-2X
 Correlation:  1.0000 M06-2X
 Using SG-3 standard quadrature grid
 Singlet excitation energies requested
 CIS energy converged when residual is below 10e- 6
 ---------------------------------------------------
 Iter    Rts Conv    Rts Left    Ttl Dev     Max Dev
 ---------------------------------------------------
   1         0           3      0.002217    0.001686
   2         0           3      0.000554    0.000413
   3         0           3      0.000261    0.000172
   4         0           3      0.000146    0.000077
   5         0           3      0.000089    0.000045
   6         0           3      0.000086    0.000045
   7         0           3      0.000781    0.000659
   8         1           2      0.000332    0.000240
   9         1           2      0.000134    0.000102
  10         1           2      0.000045    0.000034
  11         1           2      0.000011    0.000008
  12         2           1      0.000004    0.000002
  13         3           0      0.000002    0.000001    Roots Converged
 ---------------------------------------------------
 
 ---------------------------------------------------
         TDDFT/TDA Excitation Energies              
 ---------------------------------------------------

 Excited state   1: excitation energy (eV) =    5.1849
 Total energy for state  1:                  -363.47995909 au
    Multiplicity: Singlet
    Trans. Mom.:  0.0009 X  -0.0014 Y  -0.1240 Z
    Strength   :     0.0019546092
    D(   31) --> V(    1) amplitude =  0.9777

 Excited state   2: excitation energy (eV) =    5.2193
 Total energy for state  2:                  -363.47869533 au
    Multiplicity: Singlet
    Trans. Mom.: -0.2880 X  -0.3841 Y   0.0002 Z
    Strength   :     0.0294710838
    D(   30) --> V(    2) amplitude = -0.7849
    D(   31) --> V(    7) amplitude =  0.5271

 Excited state   3: excitation energy (eV) =    5.3280
 Total energy for state  3:                  -363.47469960 au
    Multiplicity: Singlet
    Trans. Mom.:  0.7932 X  -0.6170 Y   0.0001 Z
    Strength   :     0.1318267875
    D(   30) --> V(    7) amplitude =  0.2780
    D(   31) --> V(    2) amplitude =  0.9038
 
 ---------------------------------------------------
 Calculating Relaxed Density
 ---------------------------------------------------
 Iter    Rts Conv    Rts Left    Ttl Dev     Max Dev
 ---------------------------------------------------
   1         0           3      0.001136    0.000618
   2         0           3      0.000459    0.000258
   3         0           3      0.000121    0.000050
   4         0           3      0.000039    0.000020
   5         0           3      0.000011    0.000006
   6         1           2      0.000002    0.000001
   7         3           0      0.000000    0.000000    Roots Converged
 ---------------------------------------------------
  SETman timing summary (seconds)
  CPU time              1215.85s
  System time              0.00s
  Wall time              584.25s
 
 --------------------------------------------------------------
 
                    Orbital Energies (a.u.)
 --------------------------------------------------------------
 
 Alpha MOs
 -- Occupied --
-14.8103 -10.5858 -10.5828 -10.5521 -10.5471 -10.5465 -10.5463 -10.5409
-10.5380  -1.0958  -0.9452  -0.8833  -0.8326  -0.8132  -0.7104  -0.6787
 -0.6643  -0.6189  -0.5564  -0.5443  -0.5052  -0.4996  -0.4987  -0.4775
 -0.4566  -0.4165  -0.4031  -0.3946  -0.3397  -0.2744  -0.2566
 -- Virtual --
  0.0073   0.0131   0.0262   0.0305   0.0434   0.0458   0.0518   0.0665
  0.0672   0.0704   0.0751   0.0766   0.0980   0.1045   0.1090   0.1101
  0.1260   0.1373   0.1485   0.1523   0.1625   0.1646   0.1746   0.1793
  0.1865   0.1963   0.1986   0.2029   0.2116   0.2163   0.2229   0.2310
  0.2332   0.2419   0.2485   0.2523   0.2588   0.2618   0.2702   0.2770
  0.2891   0.2912   0.3083   0.3178   0.3330   0.3436   0.3460   0.3587
  0.3794   0.4034   0.4122   0.4392   0.4845   0.4919   0.5586   0.6303
  0.6767   0.7161   0.7184   0.7456   0.7598   0.7671   0.7776   0.7833
  0.7899   0.8003   0.8053   0.8242   0.8399   0.8465   0.8610   0.9010
  0.9401   0.9578   0.9661   0.9885   0.9994   1.0046   1.0179   1.0331
  1.0509   1.0778   1.0954   1.1170   1.1332   1.1545   1.1577   1.2091
  1.2172   1.2414   1.2604   1.2900   1.2937   1.3553   1.3773   1.3978
  1.4009   1.4506   1.4730   1.4866   1.5182   1.5240   1.5559   1.5632
  1.5740   1.6243   1.6860   1.8271   1.8889   1.9316   1.9409   1.9611
  1.9901   2.0448   2.0526   2.0534   2.1124   2.1428   2.1851   2.2156
  2.2170   2.2405   2.2935   2.3013   2.3062   2.3257   2.3504   2.4194
  2.4498   2.4837   2.5853   2.5957   2.6665   2.6855   2.6996   2.7300
  2.7625   2.8388   2.8761   2.8828   2.9755   3.0012   3.1398   3.2575
  3.4593   4.1833   4.2868   4.3186   4.3525   4.3900   4.4256   4.5072
  4.5461   4.8143
 --------------------------------------------------------------
 
          Ground-State Mulliken Net Atomic Charges

     Atom                 Charge (a.u.)
  ----------------------------------------
      1 C                    -0.020129
      2 C                    -0.484764
      3 C                    -0.016970
      4 C                    -0.927505
      5 C                     1.043838
      6 C                    -0.613610
      7 N                    -0.539293
      8 C                     0.168275
      9 C                    -0.284667
     10 H                     0.437742
     11 H                     0.216215
     12 H                     0.216921
     13 H                     0.199064
     14 H                     0.201641
     15 H                     0.197534
     16 H                     0.205707
  ----------------------------------------
  Sum of atomic charges =     0.000000

 -----------------------------------------------------------------
                    Cartesian Multipole Moments
 -----------------------------------------------------------------
    Charge (ESU x 10^10)
                -0.0000
    Dipole Moment (Debye)
         X      -1.5068      Y       1.5635      Z       0.0011
       Tot       2.1714
    Quadrupole Moments (Debye-Ang)
        XX     -45.0529     XY      -3.1512     YY     -44.3465
        XZ      -0.0033     YZ       0.0033     ZZ     -58.9845
    Octopole Moments (Debye-Ang^2)
       XXX     -15.0004    XXY       8.2607    XYY      -7.9577
       YYY      10.5207    XXZ       0.0078    XYZ      -0.0067
       YYZ       0.0021    XZZ      -2.0022    YZZ       2.0070
       ZZZ      -0.0009
    Hexadecapole Moments (Debye-Ang^3)
      XXXX    -808.3168   XXXY     -21.5007   XXYY    -194.9130
      XYYY     -19.6855   YYYY    -366.6908   XXXZ      -0.0245
      XXYZ       0.0132   XYYZ      -0.0072   YYYZ       0.0145
      XXZZ    -188.4798   XYZZ      -3.8993   YYZZ     -93.2817
      XZZZ      -0.0011   YZZZ       0.0029   ZZZZ     -72.3214
 -----------------------------------------------------------------
 Calculating analytic gradient of the CIS energy
 CIS relaxed dipole moment
            1
    1   2.3193737
    2  -2.6600296
    3  -0.0030566
	Magnitude:	 3.529 au	 8.970 Debye
 CIS 1 State Energy is -363.4799590936
 Gradient of the state energy (including CIS Excitation Energy)
            1           2           3           4           5           6
    1  -0.0130287  -0.0159238   0.0306663  -0.0131836   0.0024461   0.0093831
    2  -0.0145389   0.0255325  -0.0096554   0.0023853  -0.0036249   0.0086256
    3  -0.0000004   0.0000033  -0.0000131   0.0000112   0.0000377  -0.0000048
            7           8           9          10          11          12
    1   0.0263417  -0.0374174  -0.0039443   0.0116640   0.0017963   0.0038378
    2   0.0590897   0.0245975  -0.0721920  -0.0242010   0.0042405  -0.0030386
    3  -0.0000651  -0.0000358   0.0000788  -0.0000073  -0.0000047  -0.0000073
           13          14          15          16
    1  -0.0019850   0.0014021  -0.0018116  -0.0002432
    2  -0.0010716  -0.0000989   0.0011219   0.0028285
    3   0.0000000   0.0000085  -0.0000019   0.0000011
 Gradient time:  CPU 72.68 s  wall 24.65 s
 Geometry Optimization Parameters
   NAtoms,    NIC,     NZ,  NCons,   NDum,   NFix, NCnnct, MaxDiis
       16     116       0       0       0       0       0       0


** GEOMETRY OPTIMIZATION IN DELOCALIZED INTERNAL COORDINATES **
   Searching for a Minimum

   Optimization Cycle:   1

                       Coordinates (Angstroms)
     ATOM                X               Y               Z
      1  C         2.1510629040   -0.6892079969    0.0000583065
      2  C         2.1279268385    0.7158180020    0.0000481775
      3  C         0.9322968051    1.4130999466   -0.0000206639
      4  C        -0.2469111607    0.6702008918   -0.0000373513
      5  C        -0.2481930942   -0.7482991083    0.0000020775
      6  C         0.9794739374   -1.4235260513    0.0000165335
      7  N        -1.5617741827    1.0775918311   -0.0002621374
      8  C        -1.6201330769   -1.1629001718   -0.0001374500
      9  C        -2.3820131241   -0.0308062080    0.0002797387
     10  H        -1.8763152174    2.0300108152    0.0004667797
     11  H        -1.9921730325   -2.1730101887   -0.0003253498
     12  H        -3.4525491271    0.0824247420    0.0004541695
     13  H         3.0615938132    1.2620200454    0.0000497686
     14  H         0.9172517540    2.4953419460   -0.0000804893
     15  H         3.1042029277   -1.2007849526    0.0000467087
     16  H         1.0093479871   -2.5054210498   -0.0000328375
   Point Group: c1    Number of degrees of freedom:    42


   Energy is   -363.479959094


 Attempting to generate delocalized internal coordinates
 Initial Hessian constructed with Jon Baker's OPTIMIZE code

 42 Hessian modes will be used to form the next step
  Hessian Eigenvalues:
     0.018594    0.019738    0.020011    0.020794    0.021683    0.022200
     0.022636    0.023004    0.023236    0.023608    0.023851    0.023984
     0.024127    0.160000    0.160000    0.160000    0.160000    0.160000
     0.160000    0.160000    0.220000    0.221879    0.226618    0.240111
     0.246509    0.357123    0.357170    0.357835    0.357899    0.364196
     0.364272    0.370088    0.384319    0.426334    0.434649    0.457693
     0.466917    0.471622    0.474685    0.475669    0.481247    0.509555

 Minimum search - taking simple RFO step
 Searching for Lamda that Minimizes Along All modes
 Value Taken    Lamda =  -0.01369837
 Step Taken.  Stepsize is  0.171794

                             Maximum     Tolerance    Cnvgd?
         Gradient           0.036456      0.000300      NO
         Displacement       0.089160      0.001200      NO
         Energy change     *********      0.000001      NO


 New Cartesian Coordinates Obtained by Inverse Iteration

 Displacement from previous Coordinates is:  0.236594
 ----------------------------------------------------------------
             Standard Nuclear Orientation (Angstroms)
    I     Atom           X                Y                Z
 ----------------------------------------------------------------
    1      C       2.1762346992    -0.6989576943     0.0000015396
    2      C       2.1284569096     0.6964974221     0.0000092004
    3      C       0.9058327706     1.4053538977     0.0000532289
    4      C      -0.2565780495     0.6609116486     0.0000472017
    5      C      -0.2313794908    -0.7535277173     0.0000018479
    6      C       0.9947142796    -1.4413945094    -0.0000035656
    7      N      -1.5841467658     1.0701652818    -0.0000658703
    8      C      -1.5933296636    -1.1579716500     0.0000352721
    9      C      -2.3814043934     0.0084375436     0.0000048601
   10      H      -1.9237030843     2.0447630711     0.0006165024
   11      H      -1.9703722977    -2.1731030630    -0.0000448076
   12      H      -3.4554949389     0.1414763076     0.0000386057
   13      H       3.0595084029     1.2534295452    -0.0000328336
   14      H       0.8764135381     2.4874733646    -0.0000383281
   15      H       3.1364868615    -1.2035980172    -0.0000403039
   16      H       1.0218561737    -2.5274029386    -0.0000565683
 ----------------------------------------------------------------
 Molecular Point Group                 C1    NOp =  1
 Largest Abelian Subgroup              C1    NOp =  1
 Nuclear Repulsion Energy =         400.87083112 hartrees
 There are       31 alpha and       31 beta electrons
 Applying Cartesian multipole field
    Component          Value
    ---------          -----
     (2,0,0)        1.00000E-11
     (0,2,0)        2.00000E-11
     (0,0,2)       -3.00000E-11
 Nucleus-field energy     =     0.0000000117 hartrees
 Requested basis set is 6-31+G(d)
 There are 59 shells and 185 basis functions
 A cutoff of  1.0D-12 yielded   1658 shell pairs
 There are     17111 function pairs
 Smallest overlap matrix eigenvalue = 1.19E-06
 Guess MOs from SCF MO coefficient file

 -----------------------------------------------------------------------
  General SCF calculation program by
  Eric Jon Sundstrom, Paul Horn, Yuezhi Mao, Dmitri Zuev, Alec White,
  David Stuck, Shaama M.S., Shane Yost, Joonho Lee, David Small,
  Daniel Levine, Susi Lehtola, Hugh Burton, Evgeny Epifanovsky,
  Bang C. Huynh
 -----------------------------------------------------------------------
 Exchange:     0.5400 Hartree-Fock + 1.0000 M06-2X
 Correlation:  1.0000 M06-2X
 Using SG-3 standard quadrature grid
 using 4 threads for integral computing
 -------------------------------------------------------
 OpenMP Integral computing Module                
 Release: version 1.0, May 2013, Q-Chem Inc. Pittsburgh 
 -------------------------------------------------------
 A restricted SCF calculation will be
 performed using DIIS
 SCF converges when DIIS error is below 1.0e-08
 ---------------------------------------
  Cycle       Energy         DIIS error
 ---------------------------------------
    1    -363.6609301931      8.05e-04  
    2    -363.6645674254      1.83e-04  
    3    -363.6647125450      1.13e-04  
    4    -363.6647662292      3.91e-05  
    5    -363.6647742541      1.40e-05  
    6    -363.6647755910      6.85e-06  
    7    -363.6647759159      1.75e-06  
    8    -363.6647759404      8.05e-07  
    9    -363.6647759439      3.22e-07  
   10    -363.6647759444      5.93e-08  
   11    -363.6647759444      2.14e-08  
   12    -363.6647759444      1.12e-08  
   13    -363.6647759444      2.79e-09  Convergence criterion met
 ---------------------------------------
 SCF time:   CPU 245.03s  wall 155.00s 
 SCF   energy in the final basis set =     -363.6647759444
 Total energy in the final basis set =     -363.6647759444
 
 Direct TDDFT/TDA calculation will be performed
 Exchange:     0.5400 Hartree-Fock + 1.0000 M06-2X
 Correlation:  1.0000 M06-2X
 Using SG-3 standard quadrature grid
 Singlet excitation energies requested
 CIS energy converged when residual is below 10e- 6
 ---------------------------------------------------
 Iter    Rts Conv    Rts Left    Ttl Dev     Max Dev
 ---------------------------------------------------
   1         0           3      0.002221    0.001704
   2         0           3      0.000501    0.000368
   3         0           3      0.000232    0.000152
   4         0           3      0.000122    0.000067
   5         0           3      0.000063    0.000034
   6         0           3      0.000064    0.000036
   7         1           2      0.000606    0.000569
   8         1           2      0.000284    0.000258
   9         1           2      0.000126    0.000114
  10         1           2      0.000047    0.000043
  11         1           2      0.000015    0.000013
  12         2           1      0.000005    0.000005
  13         2           1      0.000002    0.000002
  14         3           0      0.000001    0.000001    Roots Converged
 ---------------------------------------------------
 
 ---------------------------------------------------
         TDDFT/TDA Excitation Energies              
 ---------------------------------------------------

 Excited state   1: excitation energy (eV) =    4.8068
 Total energy for state  1:                  -363.48812910 au
    Multiplicity: Singlet
    Trans. Mom.:  0.0006 X  -0.0005 Y  -0.1272 Z
    Strength   :     0.0019046879
    D(   31) --> V(    1) amplitude =  0.9820

 Excited state   2: excitation energy (eV) =    4.9903
 Total energy for state  2:                  -363.48138456 au
    Multiplicity: Singlet
    Trans. Mom.: -0.9320 X   0.6954 Y  -0.0001 Z
    Strength   :     0.1653084990
    D(   30) --> V(    7) amplitude = -0.2227
    D(   31) --> V(    2) amplitude =  0.9225

 Excited state   3: excitation energy (eV) =    5.2074
 Total energy for state  3:                  -363.47340623 au
    Multiplicity: Singlet
    Trans. Mom.:  0.0880 X  -0.2847 Y  -0.0000 Z
    Strength   :     0.0113246065
    D(   30) --> V(    2) amplitude =  0.7232
    D(   31) --> V(    7) amplitude =  0.6150
 
 ---------------------------------------------------
 Calculating Relaxed Density
 ---------------------------------------------------
 Iter    Rts Conv    Rts Left    Ttl Dev     Max Dev
 ---------------------------------------------------
   1         0           3      0.001227    0.000660
   2         0           3      0.000475    0.000251
   3         0           3      0.000126    0.000051
   4         0           3      0.000040    0.000019
   5         0           3      0.000011    0.000006
   6         2           1      0.000001    0.000001
   7         3           0      0.000000    0.000000    Roots Converged
 ---------------------------------------------------
  SETman timing summary (seconds)
  CPU time              1218.23s
  System time              0.00s
  Wall time              749.35s
 
 --------------------------------------------------------------
 
                    Orbital Energies (a.u.)
 --------------------------------------------------------------
 
 Alpha MOs
 -- Occupied --
-14.8165 -10.5877 -10.5824 -10.5546 -10.5489 -10.5478 -10.5471 -10.5440
-10.5371  -1.1053  -0.9458  -0.8769  -0.8389  -0.8039  -0.7133  -0.6778
 -0.6628  -0.6191  -0.5550  -0.5448  -0.5065  -0.5044  -0.5004  -0.4691
 -0.4550  -0.4163  -0.4050  -0.3953  -0.3355  -0.2821  -0.2455
 -- Virtual --
  0.0044   0.0099   0.0261   0.0313   0.0431   0.0465   0.0518   0.0668
  0.0673   0.0701   0.0745   0.0757   0.0991   0.1038   0.1090   0.1101
  0.1253   0.1383   0.1478   0.1509   0.1608   0.1642   0.1729   0.1792
  0.1859   0.1956   0.1970   0.2040   0.2113   0.2148   0.2250   0.2310
  0.2323   0.2405   0.2498   0.2520   0.2559   0.2599   0.2682   0.2759
  0.2905   0.2923   0.3061   0.3184   0.3261   0.3427   0.3465   0.3615
  0.3809   0.3983   0.4087   0.4373   0.4764   0.4928   0.5614   0.6288
  0.6729   0.7161   0.7190   0.7444   0.7652   0.7686   0.7760   0.7817
  0.7865   0.8023   0.8129   0.8233   0.8392   0.8429   0.8597   0.9011
  0.9354   0.9518   0.9622   0.9923   0.9991   1.0053   1.0158   1.0360
  1.0499   1.0736   1.0947   1.0978   1.1292   1.1504   1.1594   1.2131
  1.2144   1.2417   1.2567   1.2849   1.2931   1.3608   1.3716   1.3980
  1.4019   1.4483   1.4717   1.4855   1.5214   1.5253   1.5532   1.5608
  1.5785   1.6216   1.6868   1.8141   1.8806   1.9311   1.9450   1.9490
  1.9922   2.0372   2.0479   2.0514   2.1022   2.1329   2.1853   2.2078
  2.2207   2.2277   2.2848   2.2961   2.3107   2.3363   2.3539   2.4132
  2.4549   2.4910   2.5744   2.5986   2.6643   2.6773   2.6945   2.7203
  2.7556   2.8353   2.8701   2.8766   2.9685   3.0001   3.1242   3.2619
  3.4477   4.1895   4.2804   4.3135   4.3447   4.3885   4.4255   4.5061
  4.5459   4.8133
 --------------------------------------------------------------
 
          Ground-State Mulliken Net Atomic Charges

     Atom                 Charge (a.u.)
  ----------------------------------------
      1 C                    -0.044752
      2 C                    -0.469482
      3 C                    -0.080918
      4 C                    -0.943617
      5 C                     1.089536
      6 C                    -0.509784
      7 N                    -0.498021
      8 C                     0.048388
      9 C                    -0.267485
     10 H                     0.440086
     11 H                     0.211778
     12 H                     0.217652
     13 H                     0.197126
     14 H                     0.201023
     15 H                     0.200851
     16 H                     0.207619
  ----------------------------------------
  Sum of atomic charges =     0.000000

 -----------------------------------------------------------------
                    Cartesian Multipole Moments
 -----------------------------------------------------------------
    Charge (ESU x 10^10)
                -0.0000
    Dipole Moment (Debye)
         X      -1.5648      Y       1.8074      Z       0.0008
       Tot       2.3907
    Quadrupole Moments (Debye-Ang)
        XX     -44.9165     XY      -4.2005     YY     -44.3986
        XZ      -0.0026     YZ       0.0028     ZZ     -59.1753
    Octopole Moments (Debye-Ang^2)
       XXX     -15.5733    XXY       9.8800    XYY      -8.3856
       YYY      11.8173    XXZ       0.0028    XYZ      -0.0059
       YYZ       0.0035    XZZ      -2.1255    YZZ       2.4509
       ZZZ      -0.0026
    Hexadecapole Moments (Debye-Ang^3)
      XXXX    -810.0171   XXXY     -23.7128   XXYY    -195.1605
      XYYY     -17.4419   YYYY    -366.9899   XXXZ      -0.0112
      XXYZ       0.0103   XYYZ      -0.0114   YYYZ       0.0097
      XXZZ    -189.9397   XYZZ      -2.4171   YYZZ     -93.9244
      XZZZ       0.0009   YZZZ      -0.0016   ZZZZ     -73.0870
 -----------------------------------------------------------------
 Calculating analytic gradient of the CIS energy
 CIS relaxed dipole moment
            1
    1   2.4611005
    2  -2.6560525
    3  -0.0013800
	Magnitude:	 3.621 au	 9.204 Debye
 CIS 1 State Energy is -363.4881290955
 Gradient of the state energy (including CIS Excitation Energy)
            1           2           3           4           5           6
    1   0.0029563   0.0004638   0.0044617  -0.0132511   0.0110998  -0.0030148
    2   0.0010698   0.0005368  -0.0009074  -0.0066348   0.0013435   0.0019381
    3   0.0000048  -0.0000057   0.0000056   0.0000103  -0.0000088  -0.0000031
            7           8           9          10          11          12
    1   0.0079820  -0.0126425  -0.0033989   0.0027895   0.0008989   0.0015560
    2   0.0167082   0.0152349  -0.0219689  -0.0063696  -0.0003647   0.0006836
    3  -0.0000292   0.0000204   0.0000017   0.0000165  -0.0000034  -0.0000052
           13          14          15          16
    1   0.0004128  -0.0011855   0.0004383   0.0004335
    2  -0.0009785   0.0000078   0.0001377  -0.0004367
    3  -0.0000007  -0.0000024  -0.0000001  -0.0000006
 Gradient time:  CPU 73.17 s  wall 34.94 s
 Geometry Optimization Parameters
   NAtoms,    NIC,     NZ,  NCons,   NDum,   NFix, NCnnct, MaxDiis
       16     116       0       0       0       0       0       0

 Cartesian Hessian Update
 Hessian updated using BFGS update


** GEOMETRY OPTIMIZATION IN DELOCALIZED INTERNAL COORDINATES **
   Searching for a Minimum

   Optimization Cycle:   2

                       Coordinates (Angstroms)
     ATOM                X               Y               Z
      1  C         2.1762346992   -0.6989576943    0.0000015396
      2  C         2.1284569096    0.6964974221    0.0000092004
      3  C         0.9058327706    1.4053538977    0.0000532289
      4  C        -0.2565780495    0.6609116486    0.0000472017
      5  C        -0.2313794908   -0.7535277173    0.0000018479
      6  C         0.9947142796   -1.4413945094   -0.0000035656
      7  N        -1.5841467658    1.0701652818   -0.0000658703
      8  C        -1.5933296636   -1.1579716500    0.0000352721
      9  C        -2.3814043934    0.0084375436    0.0000048601
     10  H        -1.9237030843    2.0447630711    0.0006165024
     11  H        -1.9703722977   -2.1731030630   -0.0000448076
     12  H        -3.4554949389    0.1414763076    0.0000386057
     13  H         3.0595084029    1.2534295452   -0.0000328336
     14  H         0.8764135381    2.4874733646   -0.0000383281
     15  H         3.1364868615   -1.2035980172   -0.0000403039
     16  H         1.0218561737   -2.5274029386   -0.0000565683
   Point Group: c1    Number of degrees of freedom:    42


   Energy is   -363.488129095

 Hessian updated using BFGS update

 40 Hessian modes will be used to form the next step
  Hessian Eigenvalues:
     0.018594    0.019738    0.020011    0.020794    0.021683    0.022200
     0.022636    0.023004    0.023236    0.023608    0.023851    0.023984
     0.024127    0.158553    0.160000    0.160000    0.160000    0.161990
     0.218443    0.221660    0.224626    0.243246    0.249181    0.350440
     0.357123    0.357374    0.358002    0.358161    0.364534    0.367085
     0.371765    0.402887    0.427212    0.441563    0.458223    0.469151
     0.474914    0.475810    0.489312    0.519204

 Minimum search - taking simple RFO step
 Searching for Lamda that Minimizes Along All modes
 Value Taken    Lamda =  -0.00182364
 Step Taken.  Stepsize is  0.082097

                             Maximum     Tolerance    Cnvgd?
         Gradient           0.012726      0.000300      NO
         Displacement       0.045793      0.001200      NO
         Energy change     -0.008170      0.000001      NO


 New Cartesian Coordinates Obtained by Inverse Iteration

 Displacement from previous Coordinates is:  0.079951
 ----------------------------------------------------------------
             Standard Nuclear Orientation (Angstroms)
    I     Atom           X                Y                Z
 ----------------------------------------------------------------
    1      C       2.1687578092    -0.7011351690    -0.0000019853
    2      C       2.1233155936     0.6957081066     0.0000287643
    3      C       0.9043516348     1.4141030060     0.0000054876
    4      C      -0.2482920372     0.6670093025     0.0000306710
    5      C      -0.2326562032    -0.7552113808     0.0000128561
    6      C       0.9919473007    -1.4477001459     0.0000179928
    7      N      -1.5853659297     1.0655143749     0.0000212225
    8      C      -1.5803501055    -1.1703739831    -0.0000762319
    9      C      -2.3698893336     0.0183621177     0.0001172528
   10      H      -1.9394169467     2.0477217407     0.0003688612
   11      H      -1.9640037321    -2.1835858505    -0.0001721198
   12      H      -3.4473151455     0.1494357155     0.0002525042
   13      H       3.0527570202     1.2563878708     0.0000270366
   14      H       0.8849088782     2.4963967532    -0.0000235410
   15      H       3.1281395013    -1.2067540880    -0.0000369025
   16      H       1.0162066469    -2.5333258780    -0.0000458875
 ----------------------------------------------------------------
 Molecular Point Group                 C1    NOp =  1
 Largest Abelian Subgroup              C1    NOp =  1
 Nuclear Repulsion Energy =         400.97093287 hartrees
 There are       31 alpha and       31 beta electrons
 Applying Cartesian multipole field
    Component          Value
    ---------          -----
     (2,0,0)        1.00000E-11
     (0,2,0)        2.00000E-11
     (0,0,2)       -3.00000E-11
 Nucleus-field energy     =     0.0000000117 hartrees
 Requested basis set is 6-31+G(d)
 There are 59 shells and 185 basis functions
 A cutoff of  1.0D-12 yielded   1657 shell pairs
 There are     17105 function pairs
 Smallest overlap matrix eigenvalue = 1.20E-06
 Guess MOs from SCF MO coefficient file

 -----------------------------------------------------------------------
  General SCF calculation program by
  Eric Jon Sundstrom, Paul Horn, Yuezhi Mao, Dmitri Zuev, Alec White,
  David Stuck, Shaama M.S., Shane Yost, Joonho Lee, David Small,
  Daniel Levine, Susi Lehtola, Hugh Burton, Evgeny Epifanovsky,
  Bang C. Huynh
 -----------------------------------------------------------------------
 Exchange:     0.5400 Hartree-Fock + 1.0000 M06-2X
 Correlation:  1.0000 M06-2X
 Using SG-3 standard quadrature grid
 using 4 threads for integral computing
 -------------------------------------------------------
 OpenMP Integral computing Module                
 Release: version 1.0, May 2013, Q-Chem Inc. Pittsburgh 
 -------------------------------------------------------
 A restricted SCF calculation will be
 performed using DIIS
 SCF converges when DIIS error is below 1.0e-08
 ---------------------------------------
  Cycle       Energy         DIIS error
 ---------------------------------------
    1    -363.6599443998      3.69e-04  
    2    -363.6607261563      7.60e-05  
    3    -363.6607506089      6.10e-05  
    4    -363.6607671042      1.90e-05  
    5    -363.6607691346      5.27e-06  
    6    -363.6607693609      2.87e-06  
    7    -363.6607694179      6.37e-07  
    8    -363.6607694211      3.44e-07  
    9    -363.6607694218      9.36e-08  
   10    -363.6607694218      3.49e-08  
   11    -363.6607694218      1.06e-08  
   12    -363.6607694218      6.02e-09  Convergence criterion met
 ---------------------------------------
 SCF time:   CPU 228.48s  wall 156.00s 
 SCF   energy in the final basis set =     -363.6607694218
 Total energy in the final basis set =     -363.6607694218
 
 Direct TDDFT/TDA calculation will be performed
 Exchange:     0.5400 Hartree-Fock + 1.0000 M06-2X
 Correlation:  1.0000 M06-2X
 Using SG-3 standard quadrature grid
 Singlet excitation energies requested
 CIS energy converged when residual is below 10e- 6
 ---------------------------------------------------
 Iter    Rts Conv    Rts Left    Ttl Dev     Max Dev
 ---------------------------------------------------
   1         0           3      0.002218    0.001704
   2         0           3      0.000489    0.000361
   3         0           3      0.000225    0.000152
   4         0           3      0.000117    0.000070
   5         0           3      0.000065    0.000041
   6         0           3      0.000067    0.000045
   7         1           2      0.000520    0.000483
   8         1           2      0.000261    0.000239
   9         1           2      0.000113    0.000103
  10         1           2      0.000044    0.000041
  11         1           2      0.000016    0.000014
  12         2           1      0.000006    0.000005
  13         2           1      0.000002    0.000002
  14         3           0      0.000001    0.000001    Roots Converged
 ---------------------------------------------------
 
 ---------------------------------------------------
         TDDFT/TDA Excitation Energies              
 ---------------------------------------------------

 Excited state   1: excitation energy (eV) =    4.6723
 Total energy for state  1:                  -363.48906563 au
    Multiplicity: Singlet
    Trans. Mom.:  0.0003 X  -0.0002 Y  -0.1259 Z
    Strength   :     0.0018152562
    D(   31) --> V(    1) amplitude =  0.9833

 Excited state   2: excitation energy (eV) =    4.9046
 Total energy for state  2:                  -363.48052828 au
    Multiplicity: Singlet
    Trans. Mom.: -1.0059 X   0.6894 Y  -0.0000 Z
    Strength   :     0.1787042203
    D(   30) --> V(    7) amplitude =  0.2132
    D(   31) --> V(    2) amplitude =  0.9234

 Excited state   3: excitation energy (eV) =    5.1966
 Total energy for state  3:                  -363.46979713 au
    Multiplicity: Singlet
    Trans. Mom.:  0.2411 X  -0.2407 Y  -0.0000 Z
    Strength   :     0.0147778735
    D(   30) --> V(    2) amplitude =  0.6985
    D(   31) --> V(    7) amplitude = -0.6418
 
 ---------------------------------------------------
 Calculating Relaxed Density
 ---------------------------------------------------
 Iter    Rts Conv    Rts Left    Ttl Dev     Max Dev
 ---------------------------------------------------
   1         0           3      0.001251    0.000661
   2         0           3      0.000476    0.000244
   3         0           3      0.000129    0.000052
   4         0           3      0.000040    0.000020
   5         0           3      0.000011    0.000006
   6         2           1      0.000001    0.000001
   7         3           0      0.000000    0.000000    Roots Converged
 ---------------------------------------------------
  SETman timing summary (seconds)
  CPU time              1230.00s
  System time              0.00s
  Wall time              838.56s
 
 --------------------------------------------------------------
 
                    Orbital Energies (a.u.)
 --------------------------------------------------------------
 
 Alpha MOs
 -- Occupied --
-14.8197 -10.5886 -10.5826 -10.5548 -10.5477 -10.5471 -10.5469 -10.5436
-10.5366  -1.1088  -0.9463  -0.8762  -0.8400  -0.8014  -0.7135  -0.6781
 -0.6621  -0.6193  -0.5547  -0.5435  -0.5085  -0.5062  -0.5012  -0.4683
 -0.4517  -0.4140  -0.4059  -0.3970  -0.3358  -0.2834  -0.2416
 -- Virtual --
  0.0033   0.0101   0.0259   0.0315   0.0432   0.0464   0.0520   0.0668
  0.0674   0.0701   0.0745   0.0756   0.0989   0.1037   0.1089   0.1100
  0.1252   0.1384   0.1477   0.1499   0.1601   0.1644   0.1727   0.1793
  0.1857   0.1951   0.1971   0.2043   0.2105   0.2144   0.2246   0.2309
  0.2327   0.2405   0.2496   0.2522   0.2551   0.2598   0.2672   0.2755
  0.2898   0.2911   0.3078   0.3186   0.3247   0.3412   0.3491   0.3630
  0.3815   0.3978   0.4075   0.4377   0.4763   0.4927   0.5631   0.6282
  0.6701   0.7153   0.7190   0.7440   0.7635   0.7688   0.7756   0.7815
  0.7902   0.8031   0.8168   0.8231   0.8399   0.8437   0.8619   0.9013
  0.9339   0.9499   0.9612   0.9931   0.9994   1.0069   1.0142   1.0358
  1.0499   1.0720   1.0929   1.0946   1.1279   1.1505   1.1604   1.2130
  1.2167   1.2412   1.2574   1.2827   1.2937   1.3664   1.3697   1.3993
  1.4039   1.4464   1.4742   1.4823   1.5210   1.5259   1.5526   1.5615
  1.5785   1.6136   1.6894   1.8090   1.8781   1.9328   1.9449   1.9518
  1.9864   2.0317   2.0507   2.0553   2.1031   2.1300   2.1859   2.2012
  2.2171   2.2322   2.2793   2.2944   2.3159   2.3407   2.3639   2.4173
  2.4604   2.4951   2.5675   2.6000   2.6629   2.6761   2.6937   2.7186
  2.7571   2.8354   2.8708   2.8748   2.9676   3.0043   3.1257   3.2589
  3.4472   4.1889   4.2806   4.3167   4.3408   4.3882   4.4264   4.5061
  4.5464   4.8107
 --------------------------------------------------------------
 
          Ground-State Mulliken Net Atomic Charges

     Atom                 Charge (a.u.)
  ----------------------------------------
      1 C                    -0.053719
      2 C                    -0.455796
      3 C                    -0.079434
      4 C                    -0.919080
      5 C                     1.040466
      6 C                    -0.518644
      7 N                    -0.479552
      8 C                     0.059628
      9 C                    -0.270537
     10 H                     0.440374
     11 H                     0.212514
     12 H                     0.216399
     13 H                     0.195908
     14 H                     0.203441
     15 H                     0.200123
     16 H                     0.207908
  ----------------------------------------
  Sum of atomic charges =     0.000000

 -----------------------------------------------------------------
                    Cartesian Multipole Moments
 -----------------------------------------------------------------
    Charge (ESU x 10^10)
                -0.0000
    Dipole Moment (Debye)
         X      -1.6298      Y       1.8966      Z       0.0005
       Tot       2.5007
    Quadrupole Moments (Debye-Ang)
        XX     -45.0417     XY      -4.3564     YY     -44.2427
        XZ      -0.0019     YZ       0.0019     ZZ     -59.2197
    Octopole Moments (Debye-Ang^2)
       XXX     -16.2138    XXY      10.2938    XYY      -8.6009
       YYY      12.1643    XXZ       0.0032    XYZ      -0.0035
       YYZ       0.0004    XZZ      -2.1845    YZZ       2.5704
       ZZZ      -0.0035
    Hexadecapole Moments (Debye-Ang^3)
      XXXX    -808.4332   XXXY     -24.7692   XXYY    -194.0454
      XYYY     -17.3413   YYYY    -368.4700   XXXZ      -0.0109
      XXYZ       0.0069   XYYZ      -0.0038   YYYZ       0.0046
      XXZZ    -189.2124   XYZZ      -2.6124   YYZZ     -94.5683
      XZZZ       0.0041   YZZZ      -0.0042   ZZZZ     -73.3036
 -----------------------------------------------------------------
 Calculating analytic gradient of the CIS energy
 CIS relaxed dipole moment
            1
    1   2.4749191
    2  -2.6568910
    3  -0.0009828
	Magnitude:	 3.631 au	 9.229 Debye
 CIS 1 State Energy is -363.4890656312
 Gradient of the state energy (including CIS Excitation Energy)
            1           2           3           4           5           6
    1   0.0020857   0.0010744  -0.0017023  -0.0021135   0.0043664  -0.0039208
    2   0.0026888  -0.0024498   0.0006043  -0.0006389   0.0005297  -0.0006640
    3  -0.0000043   0.0000042  -0.0000059   0.0000042   0.0000089   0.0000080
            7           8           9          10          11          12
    1  -0.0009745  -0.0028647   0.0042016   0.0000147   0.0001816  -0.0000177
    2  -0.0020883   0.0025163   0.0001903  -0.0005014  -0.0009418   0.0007889
    3  -0.0000223  -0.0000160   0.0000205   0.0000068  -0.0000014  -0.0000009
           13          14          15          16
    1   0.0000810  -0.0003388  -0.0001383   0.0000654
    2   0.0002172   0.0002418  -0.0002214  -0.0002717
    3   0.0000001   0.0000006  -0.0000010  -0.0000015
 Gradient time:  CPU 73.27 s  wall 59.11 s
 Geometry Optimization Parameters
   NAtoms,    NIC,     NZ,  NCons,   NDum,   NFix, NCnnct, MaxDiis
       16     116       0       0       0       0       0       0

 Cartesian Hessian Update
 Hessian updated using BFGS update


** GEOMETRY OPTIMIZATION IN DELOCALIZED INTERNAL COORDINATES **
   Searching for a Minimum

   Optimization Cycle:   3

                       Coordinates (Angstroms)
     ATOM                X               Y               Z
      1  C         2.1687578092   -0.7011351690   -0.0000019853
      2  C         2.1233155936    0.6957081066    0.0000287643
      3  C         0.9043516348    1.4141030060    0.0000054876
      4  C        -0.2482920372    0.6670093025    0.0000306710
      5  C        -0.2326562032   -0.7552113808    0.0000128561
      6  C         0.9919473007   -1.4477001459    0.0000179928
      7  N        -1.5853659297    1.0655143749    0.0000212225
      8  C        -1.5803501055   -1.1703739831   -0.0000762319
      9  C        -2.3698893336    0.0183621177    0.0001172528
     10  H        -1.9394169467    2.0477217407    0.0003688612
     11  H        -1.9640037321   -2.1835858505   -0.0001721198
     12  H        -3.4473151455    0.1494357155    0.0002525042
     13  H         3.0527570202    1.2563878708    0.0000270366
     14  H         0.8849088782    2.4963967532   -0.0000235410
     15  H         3.1281395013   -1.2067540880   -0.0000369025
     16  H         1.0162066469   -2.5333258780   -0.0000458875
   Point Group: c1    Number of degrees of freedom:    42


   Energy is   -363.489065631

 Hessian updated using BFGS update

 40 Hessian modes will be used to form the next step
  Hessian Eigenvalues:
     0.018593    0.019738    0.020011    0.020794    0.021683    0.022200
     0.022636    0.023004    0.023236    0.023608    0.023851    0.023984
     0.024127    0.154342    0.160000    0.160000    0.160912    0.160988
     0.218888    0.220962    0.230511    0.237469    0.246899    0.334807
     0.357203    0.357462    0.357920    0.358105    0.364843    0.365250
     0.372515    0.407697    0.430360    0.441358    0.461495    0.470759
     0.475400    0.482506    0.494628    0.527146

 Minimum search - taking simple RFO step
 Searching for Lamda that Minimizes Along All modes
 Value Taken    Lamda =  -0.00010729
 Step Taken.  Stepsize is  0.018089

                             Maximum     Tolerance    Cnvgd?
         Gradient           0.002806      0.000300      NO
         Displacement       0.007590      0.001200      NO
         Energy change     -0.000937      0.000001      NO


 New Cartesian Coordinates Obtained by Inverse Iteration

 Displacement from previous Coordinates is:  0.023201
 ----------------------------------------------------------------
             Standard Nuclear Orientation (Angstroms)
    I     Atom           X                Y                Z
 ----------------------------------------------------------------
    1      C       2.1680148654    -0.7019794165    -0.0000494951
    2      C       2.1238334447     0.6960929411     0.0000117974
    3      C       0.9067482834     1.4146287568     0.0000726874
    4      C      -0.2472588044     0.6686803847     0.0000869503
    5      C      -0.2347306630    -0.7550039397     0.0000185555
    6      C       0.9930478371    -1.4470137024    -0.0000557167
    7      N      -1.5866850078     1.0672017375     0.0001051014
    8      C      -1.5797260331    -1.1717108881     0.0000727663
    9      C      -2.3734596082     0.0181544789    -0.0000039213
   10      H      -1.9406599291     2.0507801649     0.0003129230
   11      H      -1.9646578262    -2.1832549890     0.0000407714
   12      H      -3.4516337873     0.1428955707     0.0000310820
   13      H       3.0539231377     1.2552820327     0.0000095746
   14      H       0.8908299362     2.4966106256     0.0000734551
   15      H       3.1280100762    -1.2065546600    -0.0000940042
   16      H       1.0174990298    -2.5322566046    -0.0001065460
 ----------------------------------------------------------------
 Molecular Point Group                 C1    NOp =  1
 Largest Abelian Subgroup              C1    NOp =  1
 Nuclear Repulsion Energy =         400.74658938 hartrees
 There are       31 alpha and       31 beta electrons
 Applying Cartesian multipole field
    Component          Value
    ---------          -----
     (2,0,0)        1.00000E-11
     (0,2,0)        2.00000E-11
     (0,0,2)       -3.00000E-11
 Nucleus-field energy     =     0.0000000117 hartrees
 Requested basis set is 6-31+G(d)
 There are 59 shells and 185 basis functions
 A cutoff of  1.0D-12 yielded   1657 shell pairs
 There are     17105 function pairs
 Smallest overlap matrix eigenvalue = 1.21E-06
 Guess MOs from SCF MO coefficient file

 -----------------------------------------------------------------------
  General SCF calculation program by
  Eric Jon Sundstrom, Paul Horn, Yuezhi Mao, Dmitri Zuev, Alec White,
  David Stuck, Shaama M.S., Shane Yost, Joonho Lee, David Small,
  Daniel Levine, Susi Lehtola, Hugh Burton, Evgeny Epifanovsky,
  Bang C. Huynh
 -----------------------------------------------------------------------
 Exchange:     0.5400 Hartree-Fock + 1.0000 M06-2X
 Correlation:  1.0000 M06-2X
 Using SG-3 standard quadrature grid
 using 4 threads for integral computing
 -------------------------------------------------------
 OpenMP Integral computing Module                
 Release: version 1.0, May 2013, Q-Chem Inc. Pittsburgh 
 -------------------------------------------------------
 A restricted SCF calculation will be
 performed using DIIS
 SCF converges when DIIS error is below 1.0e-08
 ---------------------------------------
  Cycle       Energy         DIIS error
 ---------------------------------------
    1    -363.6608421727      9.59e-05  
    2    -363.6608842140      2.52e-05  
    3    -363.6608842043      2.75e-05  
    4    -363.6608873974      3.47e-06  
    5    -363.6608874708      1.92e-06  
    6    -363.6608874961      6.04e-07  
    7    -363.6608875007      2.86e-07  
    8    -363.6608875015      9.36e-08  
    9    -363.6608875016      2.98e-08  
   10    -363.6608875016      9.10e-09  Convergence criterion met
 ---------------------------------------
 SCF time:   CPU 190.44s  wall 141.00s 
 SCF   energy in the final basis set =     -363.6608875016
 Total energy in the final basis set =     -363.6608875016
 
 Direct TDDFT/TDA calculation will be performed
 Exchange:     0.5400 Hartree-Fock + 1.0000 M06-2X
 Correlation:  1.0000 M06-2X
 Using SG-3 standard quadrature grid
 Singlet excitation energies requested
 CIS energy converged when residual is below 10e- 6
 ---------------------------------------------------
 Iter    Rts Conv    Rts Left    Ttl Dev     Max Dev
 ---------------------------------------------------
   1         0           3      0.002220    0.001707
   2         0           3      0.000490    0.000362
   3         0           3      0.000225    0.000153
   4         0           3      0.000118    0.000070
   5         0           3      0.000066    0.000041
   6         0           3      0.000066    0.000045
   7         1           2      0.000539    0.000501
   8         1           2      0.000276    0.000252
   9         1           2      0.000113    0.000103
  10         1           2      0.000045    0.000041
  11         1           2      0.000016    0.000014
  12         2           1      0.000006    0.000006
  13         2           1      0.000002    0.000002
  14         3           0      0.000001    0.000001    Roots Converged
 ---------------------------------------------------
 
 ---------------------------------------------------
         TDDFT/TDA Excitation Energies              
 ---------------------------------------------------

 Excited state   1: excitation energy (eV) =    4.6738
 Total energy for state  1:                  -363.48912788 au
    Multiplicity: Singlet
    Trans. Mom.:  0.0000 X  -0.0000 Y  -0.1267 Z
    Strength   :     0.0018391185
    D(   31) --> V(    1) amplitude =  0.9834

 Excited state   2: excitation energy (eV) =    4.9038
 Total energy for state  2:                  -363.48067552 au
    Multiplicity: Singlet
    Trans. Mom.: -1.0306 X   0.6825 Y  -0.0000 Z
    Strength   :     0.1835657697
    D(   30) --> V(    7) amplitude = -0.2135
    D(   31) --> V(    2) amplitude =  0.9227

 Excited state   3: excitation energy (eV) =    5.1936
 Total energy for state  3:                  -363.47002753 au
    Multiplicity: Singlet
    Trans. Mom.:  0.2493 X  -0.2410 Y  -0.0000 Z
    Strength   :     0.0152994095
    D(   30) --> V(    2) amplitude =  0.6985
    D(   31) --> V(    7) amplitude =  0.6414
 
 ---------------------------------------------------
 Calculating Relaxed Density
 ---------------------------------------------------
 Iter    Rts Conv    Rts Left    Ttl Dev     Max Dev
 ---------------------------------------------------
   1         0           3      0.001254    0.000660
   2         0           3      0.000477    0.000244
   3         0           3      0.000130    0.000053
   4         0           3      0.000041    0.000020
   5         0           3      0.000011    0.000006
   6         2           1      0.000001    0.000001
   7         3           0      0.000000    0.000000    Roots Converged
 ---------------------------------------------------
  SETman timing summary (seconds)
  CPU time              1223.48s
  System time              0.00s
  Wall time              814.82s
 
 --------------------------------------------------------------
 
                    Orbital Energies (a.u.)
 --------------------------------------------------------------
 
 Alpha MOs
 -- Occupied --
-14.8201 -10.5891 -10.5830 -10.5549 -10.5478 -10.5471 -10.5470 -10.5435
-10.5369  -1.1072  -0.9461  -0.8760  -0.8398  -0.8012  -0.7129  -0.6781
 -0.6618  -0.6191  -0.5547  -0.5437  -0.5085  -0.5053  -0.5010  -0.4682
 -0.4517  -0.4140  -0.4058  -0.3971  -0.3358  -0.2834  -0.2415
 -- Virtual --
  0.0034   0.0100   0.0259   0.0314   0.0432   0.0463   0.0519   0.0668
  0.0673   0.0701   0.0746   0.0756   0.0988   0.1036   0.1088   0.1100
  0.1252   0.1383   0.1476   0.1499   0.1600   0.1644   0.1727   0.1793
  0.1858   0.1951   0.1971   0.2043   0.2104   0.2143   0.2245   0.2309
  0.2328   0.2403   0.2495   0.2520   0.2549   0.2600   0.2672   0.2754
  0.2892   0.2911   0.3080   0.3185   0.3247   0.3411   0.3490   0.3626
  0.3808   0.3980   0.4073   0.4368   0.4760   0.4919   0.5622   0.6279
  0.6698   0.7154   0.7189   0.7440   0.7626   0.7688   0.7755   0.7816
  0.7906   0.8031   0.8161   0.8231   0.8400   0.8431   0.8615   0.9013
  0.9338   0.9499   0.9611   0.9932   0.9996   1.0068   1.0142   1.0358
  1.0498   1.0719   1.0926   1.0947   1.1279   1.1502   1.1603   1.2125
  1.2164   1.2409   1.2570   1.2831   1.2938   1.3656   1.3701   1.3986
  1.4039   1.4469   1.4736   1.4818   1.5206   1.5258   1.5527   1.5614
  1.5775   1.6128   1.6883   1.8079   1.8775   1.9320   1.9440   1.9527
  1.9859   2.0308   2.0506   2.0548   2.1009   2.1295   2.1861   2.1997
  2.2158   2.2305   2.2790   2.2950   2.3156   2.3386   2.3609   2.4159
  2.4589   2.4948   2.5655   2.5978   2.6630   2.6759   2.6928   2.7176
  2.7564   2.8338   2.8700   2.8745   2.9674   3.0026   3.1229   3.2571
  3.4463   4.1871   4.2807   4.3170   4.3399   4.3868   4.4266   4.5053
  4.5457   4.8098
 --------------------------------------------------------------
 
          Ground-State Mulliken Net Atomic Charges

     Atom                 Charge (a.u.)
  ----------------------------------------
      1 C                    -0.050143
      2 C                    -0.455772
      3 C                    -0.074352
      4 C                    -0.916355
      5 C                     1.030317
      6 C                    -0.525523
      7 N                    -0.480566
      8 C                     0.067611
      9 C                    -0.272277
     10 H                     0.440152
     11 H                     0.212591
     12 H                     0.216893
     13 H                     0.195893
     14 H                     0.203711
     15 H                     0.200087
     16 H                     0.207733
  ----------------------------------------
  Sum of atomic charges =     0.000000

 -----------------------------------------------------------------
                    Cartesian Multipole Moments
 -----------------------------------------------------------------
    Charge (ESU x 10^10)
                -0.0000
    Dipole Moment (Debye)
         X      -1.6276      Y       1.8898      Z       0.0003
       Tot       2.4941
    Quadrupole Moments (Debye-Ang)
        XX     -44.9994     XY      -4.3130     YY     -44.2403
        XZ      -0.0010     YZ       0.0012     ZZ     -59.2376
    Octopole Moments (Debye-Ang^2)
       XXX     -16.2879    XXY      10.2007    XYY      -8.5910
       YYY      12.1794    XXZ      -0.0004    XYZ      -0.0018
       YYZ       0.0005    XZZ      -2.1276    YZZ       2.5404
       ZZZ      -0.0050
    Hexadecapole Moments (Debye-Ang^3)
      XXXX    -808.6107   XXXY     -24.4855   XXYY    -194.2071
      XYYY     -17.3544   YYYY    -368.6643   XXXZ       0.0025
      XXYZ       0.0030   XYYZ      -0.0026   YYYZ      -0.0003
      XXZZ    -189.4689   XYZZ      -2.6155   YYZZ     -94.6277
      XZZZ       0.0088   YZZZ      -0.0074   ZZZZ     -73.3474
 -----------------------------------------------------------------
 Calculating analytic gradient of the CIS energy
 CIS relaxed dipole moment
            1
    1   2.4704341
    2  -2.6563943
    3  -0.0002167
	Magnitude:	 3.628 au	 9.220 Debye
 CIS 1 State Energy is -363.4891278754
 Gradient of the state energy (including CIS Excitation Energy)
            1           2           3           4           5           6
    1   0.0009579   0.0008092  -0.0010517   0.0005226   0.0015614  -0.0017813
    2   0.0016593  -0.0015270   0.0004484   0.0003124   0.0000721  -0.0004790
    3   0.0000014  -0.0000015   0.0000017   0.0000017  -0.0000066  -0.0000040
            7           8           9          10          11          12
    1   0.0003137  -0.0011266   0.0000847  -0.0002319   0.0001893  -0.0002677
    2  -0.0004913  -0.0000975  -0.0003942   0.0004102  -0.0000981   0.0001476
    3   0.0000028   0.0000216  -0.0000244   0.0000075  -0.0000009   0.0000021
           13          14          15          16
    1  -0.0000209  -0.0000039  -0.0000477   0.0000929
    2   0.0001046   0.0000074  -0.0000963   0.0000213
    3   0.0000002  -0.0000020   0.0000005   0.0000000
 Gradient time:  CPU 73.25 s  wall 54.93 s
 Geometry Optimization Parameters
   NAtoms,    NIC,     NZ,  NCons,   NDum,   NFix, NCnnct, MaxDiis
       16     116       0       0       0       0       0       0

 Cartesian Hessian Update
 Hessian updated using BFGS update


** GEOMETRY OPTIMIZATION IN DELOCALIZED INTERNAL COORDINATES **
   Searching for a Minimum

   Optimization Cycle:   4

                       Coordinates (Angstroms)
     ATOM                X               Y               Z
      1  C         2.1680148654   -0.7019794165   -0.0000494951
      2  C         2.1238334447    0.6960929411    0.0000117974
      3  C         0.9067482834    1.4146287568    0.0000726874
      4  C        -0.2472588044    0.6686803847    0.0000869503
      5  C        -0.2347306630   -0.7550039397    0.0000185555
      6  C         0.9930478371   -1.4470137024   -0.0000557167
      7  N        -1.5866850078    1.0672017375    0.0001051014
      8  C        -1.5797260331   -1.1717108881    0.0000727663
      9  C        -2.3734596082    0.0181544789   -0.0000039213
     10  H        -1.9406599291    2.0507801649    0.0003129230
     11  H        -1.9646578262   -2.1832549890    0.0000407714
     12  H        -3.4516337873    0.1428955707    0.0000310820
     13  H         3.0539231377    1.2552820327    0.0000095746
     14  H         0.8908299362    2.4966106256    0.0000734551
     15  H         3.1280100762   -1.2065546600   -0.0000940042
     16  H         1.0174990298   -2.5322566046   -0.0001065460
   Point Group: c1    Number of degrees of freedom:    42


   Energy is   -363.489127875

 Hessian updated using BFGS update

 40 Hessian modes will be used to form the next step
  Hessian Eigenvalues:
     0.018593    0.019738    0.020011    0.020794    0.021688    0.022201
     0.022636    0.023004    0.023236    0.023608    0.023851    0.023984
     0.024127    0.140800    0.159324    0.160000    0.160510    0.161590
     0.219510    0.222300    0.231951    0.240068    0.245739    0.293867
     0.357205    0.357452    0.357862    0.358124    0.361773    0.365934
     0.370705    0.407024    0.420996    0.432511    0.441752    0.471322
     0.473249    0.482317    0.492747    0.598851

 Minimum search - taking simple RFO step
 Searching for Lamda that Minimizes Along All modes
 Value Taken    Lamda =  -0.00001772
 Step Taken.  Stepsize is  0.008597

                             Maximum     Tolerance    Cnvgd?
         Gradient           0.001528      0.000300      NO
         Displacement       0.004624      0.001200      NO
         Energy change     -0.000062      0.000001      NO


 New Cartesian Coordinates Obtained by Inverse Iteration

 Displacement from previous Coordinates is:  0.006985
 ----------------------------------------------------------------
             Standard Nuclear Orientation (Angstroms)
    I     Atom           X                Y                Z
 ----------------------------------------------------------------
    1      C       2.1674515604    -0.7028482449    -0.0000255140
    2      C       2.1229558913     0.6965939790     0.0000253290
    3      C       0.9069153524     1.4142054253     0.0000577125
    4      C      -0.2477095114     0.6684873707     0.0000626837
    5      C      -0.2354836393    -0.7553780101     0.0000064774
    6      C       0.9941155966    -1.4471180100    -0.0000277652
    7      N      -1.5870557510     1.0679885023     0.0000720331
    8      C      -1.5787609206    -1.1715751530    -0.0000506109
    9      C      -2.3733204850     0.0187742880     0.0001838676
   10      H      -1.9402853895     2.0514993452     0.0000992286
   11      H      -1.9655643859    -2.1822289917    -0.0001295421
   12      H      -3.4512808089     0.1413105558     0.0002786120
   13      H       3.0532863170     1.2552314431     0.0000340967
   14      H       0.8914065676     2.4961351677     0.0000923262
   15      H       3.1281141788    -1.2061710382    -0.0000658065
   16      H       1.0183103789    -2.5323541366    -0.0000871467
 ----------------------------------------------------------------
 Molecular Point Group                 C1    NOp =  1
 Largest Abelian Subgroup              C1    NOp =  1
 Nuclear Repulsion Energy =         400.76164963 hartrees
 There are       31 alpha and       31 beta electrons
 Applying Cartesian multipole field
    Component          Value
    ---------          -----
     (2,0,0)        1.00000E-11
     (0,2,0)        2.00000E-11
     (0,0,2)       -3.00000E-11
 Nucleus-field energy     =     0.0000000117 hartrees
 Requested basis set is 6-31+G(d)
 There are 59 shells and 185 basis functions
 A cutoff of  1.0D-12 yielded   1657 shell pairs
 There are     17105 function pairs
 Smallest overlap matrix eigenvalue = 1.21E-06
 Guess MOs from SCF MO coefficient file

 -----------------------------------------------------------------------
  General SCF calculation program by
  Eric Jon Sundstrom, Paul Horn, Yuezhi Mao, Dmitri Zuev, Alec White,
  David Stuck, Shaama M.S., Shane Yost, Joonho Lee, David Small,
  Daniel Levine, Susi Lehtola, Hugh Burton, Evgeny Epifanovsky,
  Bang C. Huynh
 -----------------------------------------------------------------------
 Exchange:     0.5400 Hartree-Fock + 1.0000 M06-2X
 Correlation:  1.0000 M06-2X
 Using SG-3 standard quadrature grid
 using 4 threads for integral computing
 -------------------------------------------------------
 OpenMP Integral computing Module                
 Release: version 1.0, May 2013, Q-Chem Inc. Pittsburgh 
 -------------------------------------------------------
 A restricted SCF calculation will be
 performed using DIIS
 SCF converges when DIIS error is below 1.0e-08
 ---------------------------------------
  Cycle       Energy         DIIS error
 ---------------------------------------
    1    -363.6608424354      3.53e-05  
    2    -363.6608510429      8.72e-06  
    3    -363.6608515320      6.17e-06  
    4    -363.6608517250      1.77e-06  
    5    -363.6608517605      7.29e-07  
    6    -363.6608517673      4.04e-07  
    7    -363.6608517688      9.77e-08  
    8    -363.6608517689      4.39e-08  
    9    -363.6608517689      1.18e-08  
   10    -363.6608517689      3.74e-09  Convergence criterion met
 ---------------------------------------
 SCF time:   CPU 188.82s  wall 140.00s 
 SCF   energy in the final basis set =     -363.6608517689
 Total energy in the final basis set =     -363.6608517689
 
 Direct TDDFT/TDA calculation will be performed
 Exchange:     0.5400 Hartree-Fock + 1.0000 M06-2X
 Correlation:  1.0000 M06-2X
 Using SG-3 standard quadrature grid
 Singlet excitation energies requested
 CIS energy converged when residual is below 10e- 6
 ---------------------------------------------------
 Iter    Rts Conv    Rts Left    Ttl Dev     Max Dev
 ---------------------------------------------------
   1         0           3      0.002219    0.001707
   2         0           3      0.000490    0.000362
   3         0           3      0.000225    0.000153
   4         0           3      0.000119    0.000071
   5         0           3      0.000068    0.000043
   6         0           3      0.000067    0.000047
   7         1           2      0.000528    0.000489
   8         1           2      0.000272    0.000248
   9         1           2      0.000110    0.000100
  10         1           2      0.000044    0.000040
  11         1           2      0.000016    0.000014
  12         2           1      0.000006    0.000005
  13         2           1      0.000002    0.000002
  14         3           0      0.000001    0.000001    Roots Converged
 ---------------------------------------------------
 
 ---------------------------------------------------
         TDDFT/TDA Excitation Energies              
 ---------------------------------------------------

 Excited state   1: excitation energy (eV) =    4.6725
 Total energy for state  1:                  -363.48913891 au
    Multiplicity: Singlet
    Trans. Mom.:  0.0001 X  -0.0001 Y  -0.1274 Z
    Strength   :     0.0018567595
    D(   31) --> V(    1) amplitude =  0.9835

 Excited state   2: excitation energy (eV) =    4.9051
 Total energy for state  2:                  -363.48059115 au
    Multiplicity: Singlet
    Trans. Mom.:  1.0426 X  -0.6752 Y  -0.0001 Z
    Strength   :     0.1854054385
    D(   30) --> V(    7) amplitude = -0.2137
    D(   31) --> V(    2) amplitude =  0.9215

 Excited state   3: excitation energy (eV) =    5.1966
 Total energy for state  3:                  -363.46988074 au
    Multiplicity: Singlet
    Trans. Mom.: -0.2642 X   0.2428 Y   0.0000 Z
    Strength   :     0.0163970605
    D(   30) --> V(    2) amplitude = -0.6972
    D(   31) --> V(    7) amplitude = -0.6410
 
 ---------------------------------------------------
 Calculating Relaxed Density
 ---------------------------------------------------
 Iter    Rts Conv    Rts Left    Ttl Dev     Max Dev
 ---------------------------------------------------
   1         0           3      0.001256    0.000659
   2         0           3      0.000478    0.000243
   3         0           3      0.000131    0.000053
   4         0           3      0.000041    0.000020
   5         0           3      0.000011    0.000006
   6         2           1      0.000001    0.000001
   7         3           0      0.000000    0.000000    Roots Converged
 ---------------------------------------------------
  SETman timing summary (seconds)
  CPU time              1234.24s
  System time              0.00s
  Wall time              791.15s
 
 --------------------------------------------------------------
 
                    Orbital Energies (a.u.)
 --------------------------------------------------------------
 
 Alpha MOs
 -- Occupied --
-14.8203 -10.5891 -10.5830 -10.5548 -10.5477 -10.5470 -10.5469 -10.5434
-10.5368  -1.1073  -0.9461  -0.8761  -0.8398  -0.8012  -0.7127  -0.6784
 -0.6618  -0.6191  -0.5548  -0.5438  -0.5087  -0.5053  -0.5009  -0.4680
 -0.4517  -0.4142  -0.4058  -0.3971  -0.3359  -0.2834  -0.2414
 -- Virtual --
  0.0034   0.0101   0.0259   0.0314   0.0432   0.0463   0.0519   0.0668
  0.0673   0.0701   0.0747   0.0756   0.0988   0.1036   0.1088   0.1100
  0.1252   0.1383   0.1476   0.1499   0.1601   0.1645   0.1727   0.1793
  0.1859   0.1951   0.1971   0.2044   0.2104   0.2143   0.2244   0.2309
  0.2328   0.2404   0.2495   0.2520   0.2549   0.2600   0.2672   0.2754
  0.2891   0.2911   0.3083   0.3185   0.3247   0.3411   0.3492   0.3626
  0.3808   0.3982   0.4073   0.4366   0.4763   0.4919   0.5623   0.6278
  0.6699   0.7157   0.7189   0.7439   0.7625   0.7688   0.7756   0.7816
  0.7912   0.8031   0.8161   0.8231   0.8401   0.8431   0.8614   0.9013
  0.9339   0.9499   0.9613   0.9932   0.9997   1.0068   1.0141   1.0359
  1.0499   1.0719   1.0927   1.0948   1.1279   1.1502   1.1603   1.2125
  1.2162   1.2408   1.2570   1.2833   1.2938   1.3657   1.3702   1.3984
  1.4039   1.4470   1.4736   1.4818   1.5204   1.5258   1.5529   1.5616
  1.5773   1.6130   1.6884   1.8072   1.8775   1.9324   1.9437   1.9535
  1.9859   2.0306   2.0508   2.0550   2.1008   2.1302   2.1868   2.1994
  2.2155   2.2307   2.2791   2.2960   2.3154   2.3386   2.3609   2.4159
  2.4590   2.4952   2.5654   2.5979   2.6635   2.6759   2.6928   2.7179
  2.7565   2.8340   2.8701   2.8747   2.9674   3.0023   3.1234   3.2573
  3.4464   4.1871   4.2808   4.3173   4.3396   4.3864   4.4271   4.5053
  4.5456   4.8100
 --------------------------------------------------------------
 
          Ground-State Mulliken Net Atomic Charges

     Atom                 Charge (a.u.)
  ----------------------------------------
      1 C                    -0.049156
      2 C                    -0.456788
      3 C                    -0.076315
      4 C                    -0.914773
      5 C                     1.030071
      6 C                    -0.525575
      7 N                    -0.480375
      8 C                     0.069062
      9 C                    -0.273168
     10 H                     0.440306
     11 H                     0.212570
     12 H                     0.216851
     13 H                     0.195820
     14 H                     0.203694
     15 H                     0.200089
     16 H                     0.207687
  ----------------------------------------
  Sum of atomic charges =     0.000000

 -----------------------------------------------------------------
                    Cartesian Multipole Moments
 -----------------------------------------------------------------
    Charge (ESU x 10^10)
                -0.0000
    Dipole Moment (Debye)
         X      -1.6288      Y       1.8914      Z       0.0001
       Tot       2.4961
    Quadrupole Moments (Debye-Ang)
        XX     -44.9979     XY      -4.3101     YY     -44.2387
        XZ      -0.0008     YZ       0.0008     ZZ     -59.2348
    Octopole Moments (Debye-Ang^2)
       XXX     -16.2608    XXY      10.1717    XYY      -8.6157
       YYY      12.2132    XXZ       0.0004    XYZ      -0.0007
       YYZ      -0.0023    XZZ      -2.1233    YZZ       2.5378
       ZZZ      -0.0059
    Hexadecapole Moments (Debye-Ang^3)
      XXXX    -808.4405   XXXY     -24.2991   XXYY    -194.1747
      XYYY     -17.2899   YYYY    -368.7320   XXXZ      -0.0015
      XXYZ       0.0010   XYYZ       0.0033   YYYZ      -0.0025
      XXZZ    -189.4313   XYZZ      -2.5779   YYZZ     -94.6252
      XZZZ       0.0102   YZZZ      -0.0080   ZZZZ     -73.3404
 -----------------------------------------------------------------
 Calculating analytic gradient of the CIS energy
 CIS relaxed dipole moment
            1
    1   2.4681187
    2  -2.6562559
    3  -0.0004859
	Magnitude:	 3.626 au	 9.216 Debye
 CIS 1 State Energy is -363.4891389110
 Gradient of the state energy (including CIS Excitation Energy)
            1           2           3           4           5           6
    1   0.0002597   0.0003536  -0.0004861   0.0004640   0.0002270  -0.0005637
    2   0.0006338  -0.0005887   0.0000968   0.0001265  -0.0001125  -0.0001168
    3  -0.0000023   0.0000012  -0.0000033   0.0000088   0.0000055   0.0000055
            7           8           9          10          11          12
    1  -0.0000024  -0.0000673  -0.0002360  -0.0001422   0.0000922   0.0000087
    2  -0.0001282  -0.0001978  -0.0000336   0.0002725   0.0000687  -0.0000297
    3  -0.0000166  -0.0000224   0.0000282  -0.0000040  -0.0000006  -0.0000003
           13          14          15          16
    1  -0.0000484   0.0000692  -0.0000093   0.0000811
    2   0.0000417  -0.0000372  -0.0000340   0.0000384
    3   0.0000003   0.0000011  -0.0000006  -0.0000006
 Gradient time:  CPU 75.02 s  wall 50.69 s
 Geometry Optimization Parameters
   NAtoms,    NIC,     NZ,  NCons,   NDum,   NFix, NCnnct, MaxDiis
       16     116       0       0       0       0       0       0

 Cartesian Hessian Update
 Hessian updated using BFGS update


** GEOMETRY OPTIMIZATION IN DELOCALIZED INTERNAL COORDINATES **
   Searching for a Minimum

   Optimization Cycle:   5

                       Coordinates (Angstroms)
     ATOM                X               Y               Z
      1  C         2.1674515604   -0.7028482449   -0.0000255140
      2  C         2.1229558913    0.6965939790    0.0000253290
      3  C         0.9069153524    1.4142054253    0.0000577125
      4  C        -0.2477095114    0.6684873707    0.0000626837
      5  C        -0.2354836393   -0.7553780101    0.0000064774
      6  C         0.9941155966   -1.4471180100   -0.0000277652
      7  N        -1.5870557510    1.0679885023    0.0000720331
      8  C        -1.5787609206   -1.1715751530   -0.0000506109
      9  C        -2.3733204850    0.0187742880    0.0001838676
     10  H        -1.9402853895    2.0514993452    0.0000992286
     11  H        -1.9655643859   -2.1822289917   -0.0001295421
     12  H        -3.4512808089    0.1413105558    0.0002786120
     13  H         3.0532863170    1.2552314431    0.0000340967
     14  H         0.8914065676    2.4961351677    0.0000923262
     15  H         3.1281141788   -1.2061710382   -0.0000658065
     16  H         1.0183103789   -2.5323541366   -0.0000871467
   Point Group: c1    Number of degrees of freedom:    42


   Energy is   -363.489138911

 Hessian updated using BFGS update

 40 Hessian modes will be used to form the next step
  Hessian Eigenvalues:
     0.018597    0.019741    0.020014    0.020794    0.021724    0.022213
     0.022637    0.023004    0.023236    0.023609    0.023851    0.023984
     0.024128    0.128881    0.158381    0.160134    0.160615    0.162490
     0.219525    0.221607    0.231798    0.240570    0.242011    0.275806
     0.355444    0.357235    0.357954    0.358123    0.358634    0.365989
     0.369870    0.392925    0.411044    0.431175    0.442358    0.471411
     0.474588    0.482168    0.490529    0.576828

 Minimum search - taking simple RFO step
 Searching for Lamda that Minimizes Along All modes
 Value Taken    Lamda =  -0.00000289
 Step Taken.  Stepsize is  0.003915

[...]
 There are       31 alpha and       31 beta electrons
 Applying Cartesian multipole field
    Component          Value
    ---------          -----
     (2,0,0)        1.00000E-11
     (0,2,0)        2.00000E-11
     (0,0,2)       -3.00000E-11
 Nucleus-field energy     =     0.0000000117 hartrees
 Requested basis set is 6-31+G(d)
 There are 59 shells and 185 basis functions
 A cutoff of  1.0D-12 yielded   1657 shell pairs
 There are     17105 function pairs
 Smallest overlap matrix eigenvalue = 1.21E-06
 Guess MOs from SCF MO coefficient file

 -----------------------------------------------------------------------
  General SCF calculation program by
  Eric Jon Sundstrom, Paul Horn, Yuezhi Mao, Dmitri Zuev, Alec White,
  David Stuck, Shaama M.S., Shane Yost, Joonho Lee, David Small,
  Daniel Levine, Susi Lehtola, Hugh Burton, Evgeny Epifanovsky,
  Bang C. Huynh
 -----------------------------------------------------------------------
 Exchange:     0.5400 Hartree-Fock + 1.0000 M06-2X
 Correlation:  1.0000 M06-2X
 Using SG-3 standard quadrature grid
 using 4 threads for integral computing
 -------------------------------------------------------
 OpenMP Integral computing Module                
 Release: version 1.0, May 2013, Q-Chem Inc. Pittsburgh 
 -------------------------------------------------------
 A restricted SCF calculation will be
 performed using DIIS
 SCF converges when DIIS error is below 1.0e-08
 ---------------------------------------
  Cycle       Energy         DIIS error
 ---------------------------------------
    1    -363.6608989145      1.49e-05  
    2    -363.6609004626      4.39e-06  
    3    -363.6609005337      4.30e-06  
    4    -363.6609006126      9.30e-07  
    5    -363.6609006208      4.79e-07  
    6    -363.6609006231      1.85e-07  
    7    -363.6609006235      6.34e-08  
    8    -363.6609006236      2.57e-08  
    9    -363.6609006236      6.80e-09  Convergence criterion met
 ---------------------------------------
 SCF time:   CPU 170.07s  wall 158.00s 
 SCF   energy in the final basis set =     -363.6609006236
 Total energy in the final basis set =     -363.6609006236
 
 Direct TDDFT/TDA calculation will be performed
 Exchange:     0.5400 Hartree-Fock + 1.0000 M06-2X
 Correlation:  1.0000 M06-2X
 Using SG-3 standard quadrature grid
 Singlet excitation energies requested
 CIS energy converged when residual is below 10e- 6
 ---------------------------------------------------
 Iter    Rts Conv    Rts Left    Ttl Dev     Max Dev
 ---------------------------------------------------
   1         0           3      0.002218    0.001706
   2         0           3      0.000490    0.000362
   3         0           3      0.000225    0.000153
   4         0           3      0.000119    0.000072
   5         0           3      0.000069    0.000043
   6         0           3      0.000068    0.000047
   7         1           2      0.000525    0.000486
   8         1           2      0.000271    0.000246
   9         1           2      0.000109    0.000099
  10         1           2      0.000043    0.000039
  11         1           2      0.000015    0.000014
  12         2           1      0.000005    0.000004
  13         2           1      0.000002    0.000002
  14         3           0      0.000001    0.000001    Roots Converged
 ---------------------------------------------------
 
 ---------------------------------------------------
         TDDFT/TDA Excitation Energies              
 ---------------------------------------------------

 Excited state   1: excitation energy (eV) =    4.6738
 Total energy for state  1:                  -363.48914050 au
    Multiplicity: Singlet
    Trans. Mom.:  0.0002 X  -0.0001 Y   0.1277 Z
    Strength   :     0.0018672322
    D(   31) --> V(    1) amplitude =  0.9835

 Excited state   2: excitation energy (eV) =    4.9070
 Total energy for state  2:                  -363.48057085 au
    Multiplicity: Singlet
    Trans. Mom.:  1.0453 X  -0.6718 Y  -0.0000 Z
    Strength   :     0.1856199119
    D(   30) --> V(    7) amplitude = -0.2140
    D(   31) --> V(    2) amplitude =  0.9209

 Excited state   3: excitation energy (eV) =    5.1982
 Total energy for state  3:                  -363.46987206 au
    Multiplicity: Singlet
    Trans. Mom.: -0.2673 X   0.2443 Y   0.0000 Z
    Strength   :     0.0166994371
    D(   30) --> V(    2) amplitude = -0.6973
    D(   31) --> V(    7) amplitude = -0.6401
 
 ---------------------------------------------------
 Calculating Relaxed Density
 ---------------------------------------------------
 Iter    Rts Conv    Rts Left    Ttl Dev     Max Dev
 ---------------------------------------------------
   1         0           3      0.001257    0.000658
   2         0           3      0.000478    0.000243
   3         0           3      0.000131    0.000053
   4         0           3      0.000041    0.000020
   5         0           3      0.000011    0.000006
   6         2           1      0.000001    0.000001
   7         3           0      0.000000    0.000000    Roots Converged
 ---------------------------------------------------
  SETman timing summary (seconds)
  CPU time              1238.23s
  System time              0.00s
  Wall time              829.39s
 
 --------------------------------------------------------------
 
                    Orbital Energies (a.u.)
 --------------------------------------------------------------
 
 Alpha MOs
 -- Occupied --
-14.8203 -10.5890 -10.5829 -10.5548 -10.5477 -10.5470 -10.5469 -10.5434
-10.5368  -1.1074  -0.9461  -0.8762  -0.8398  -0.8012  -0.7126  -0.6785
 -0.6618  -0.6192  -0.5549  -0.5438  -0.5087  -0.5053  -0.5009  -0.4679
 -0.4517  -0.4143  -0.4058  -0.3970  -0.3359  -0.2834  -0.2414
 -- Virtual --
  0.0034   0.0101   0.0259   0.0314   0.0432   0.0463   0.0519   0.0668
  0.0673   0.0701   0.0747   0.0756   0.0988   0.1036   0.1088   0.1100
  0.1252   0.1383   0.1476   0.1499   0.1601   0.1645   0.1728   0.1793
  0.1859   0.1951   0.1972   0.2044   0.2104   0.2143   0.2244   0.2309
  0.2328   0.2405   0.2495   0.2520   0.2549   0.2600   0.2672   0.2754
  0.2891   0.2910   0.3084   0.3184   0.3247   0.3410   0.3493   0.3626
  0.3809   0.3983   0.4073   0.4365   0.4764   0.4920   0.5622   0.6277
  0.6699   0.7158   0.7189   0.7439   0.7625   0.7688   0.7755   0.7817
  0.7914   0.8031   0.8160   0.8231   0.8401   0.8431   0.8613   0.9013
  0.9340   0.9500   0.9613   0.9932   0.9997   1.0068   1.0141   1.0359
  1.0498   1.0719   1.0928   1.0948   1.1279   1.1503   1.1602   1.2126
  1.2161   1.2407   1.2572   1.2833   1.2937   1.3657   1.3702   1.3983
  1.4040   1.4468   1.4736   1.4818   1.5204   1.5258   1.5529   1.5617
  1.5774   1.6132   1.6883   1.8070   1.8775   1.9328   1.9435   1.9535
  1.9858   2.0305   2.0509   2.0551   2.1009   2.1305   2.1872   2.1995
  2.2154   2.2308   2.2791   2.2965   2.3151   2.3386   2.3609   2.4159
  2.4591   2.4953   2.5655   2.5981   2.6637   2.6760   2.6927   2.7181
  2.7565   2.8340   2.8702   2.8747   2.9674   3.0022   3.1237   3.2575
  3.4463   4.1872   4.2808   4.3175   4.3396   4.3863   4.4273   4.5053
  4.5457   4.8100
 --------------------------------------------------------------
 
          Ground-State Mulliken Net Atomic Charges

     Atom                 Charge (a.u.)
  ----------------------------------------
      1 C                    -0.049197
      2 C                    -0.457251
      3 C                    -0.077970
      4 C                    -0.914282
      5 C                     1.031408
      6 C                    -0.525028
      7 N                    -0.480287
      8 C                     0.068576
      9 C                    -0.273008
     10 H                     0.440370
     11 H                     0.212580
     12 H                     0.216820
     13 H                     0.195803
     14 H                     0.203675
     15 H                     0.200099
     16 H                     0.207693
  ----------------------------------------
  Sum of atomic charges =     0.000000

 -----------------------------------------------------------------
                    Cartesian Multipole Moments
 -----------------------------------------------------------------
    Charge (ESU x 10^10)
                -0.0000
    Dipole Moment (Debye)
         X      -1.6285      Y       1.8918      Z       0.0001
       Tot       2.4962
    Quadrupole Moments (Debye-Ang)
        XX     -45.0024     XY      -4.3086     YY     -44.2389
        XZ      -0.0003     YZ       0.0010     ZZ     -59.2335
    Octopole Moments (Debye-Ang^2)
       XXX     -16.2374    XXY      10.1572    XYY      -8.6284
       YYY      12.2225    XXZ      -0.0026    XYZ      -0.0012
       YYZ       0.0011    XZZ      -2.1268    YZZ       2.5406
       ZZZ      -0.0055
    Hexadecapole Moments (Debye-Ang^3)
      XXXX    -808.3731   XXXY     -24.2409   XXYY    -194.1926
      XYYY     -17.2685   YYYY    -368.7855   XXXZ       0.0125
      XXYZ       0.0015   XYYZ      -0.0018   YYYZ      -0.0015
      XXZZ    -189.4096   XYZZ      -2.5735   YYZZ     -94.6271
      XZZZ       0.0124   YZZZ      -0.0085   ZZZZ     -73.3368
 -----------------------------------------------------------------
 Calculating analytic gradient of the CIS energy
 CIS relaxed dipole moment
            1
    1   2.4664939
    2  -2.6565532
    3   0.0002811
	Magnitude:	 3.625 au	 9.214 Debye
 CIS 1 State Energy is -363.4891405048
 Gradient of the state energy (including CIS Excitation Energy)
            1           2           3           4           5           6
    1   0.0000153   0.0000612  -0.0000981   0.0001077  -0.0000543  -0.0000228
    2   0.0000396  -0.0000280  -0.0000203   0.0000483  -0.0000541   0.0000190
    3   0.0000043  -0.0000025   0.0000044  -0.0000180  -0.0000049  -0.0000098
            7           8           9          10          11          12
    1  -0.0000167   0.0000358  -0.0000610  -0.0000242  -0.0000001   0.0000203
    2   0.0000051  -0.0000082  -0.0000233   0.0000360   0.0000030  -0.0000415
    3   0.0000284   0.0000394  -0.0000505   0.0000083  -0.0000002   0.0000013
           13          14          15          16
    1  -0.0000193   0.0000270  -0.0000001   0.0000293
    2   0.0000238   0.0000006  -0.0000041   0.0000041
    3  -0.0000001  -0.0000019   0.0000010   0.0000006
 Gradient time:  CPU 73.42 s  wall 61.09 s
 Geometry Optimization Parameters
   NAtoms,    NIC,     NZ,  NCons,   NDum,   NFix, NCnnct, MaxDiis
       16     116       0       0       0       0       0       0

 Cartesian Hessian Update
 Hessian updated using BFGS update


** GEOMETRY OPTIMIZATION IN DELOCALIZED INTERNAL COORDINATES **
   Searching for a Minimum

   Optimization Cycle:   6

                       Coordinates (Angstroms)
     ATOM                X               Y               Z
      1  C         2.1673138343   -0.7032158888   -0.0000723101
      2  C         2.1225087876    0.6970436549   -0.0000111300
      3  C         0.9069260796    1.4141688458    0.0000806008
      4  C        -0.2478921846    0.6682051465    0.0000822140
      5  C        -0.2356074547   -0.7556028294    0.0000277487
      6  C         0.9946926336   -1.4473047583   -0.0000746537
      7  N        -1.5868139340    1.0680238096    0.0002035250
      8  C        -1.5786546291   -1.1715183895    0.0001343487
      9  C        -2.3730738324    0.0189590479   -0.0000697490
     10  H        -1.9393707554    2.0512887609    0.0003355812
     11  H        -1.9663990366   -2.1819505916    0.0001316646
     12  H        -3.4510221835    0.1413764099   -0.0001268970
     13  H         3.0530686689    1.2553477674   -0.0000192940
     14  H         0.8907026949    2.4961472536    0.0001255121
     15  H         3.1283424835   -1.2058135006   -0.0001184631
     16  H         1.0183737789   -2.5326022456   -0.0001027171
   Point Group: c1    Number of degrees of freedom:    42


   Energy is   -363.489140505

 Hessian updated using BFGS update

 41 Hessian modes will be used to form the next step
  Hessian Eigenvalues:
     0.018608    0.019798    0.020052    0.020798    0.021973    0.022562
     0.022676    0.023004    0.023243    0.023613    0.023852    0.023984
     0.024129    0.125921    0.154157    0.160065    0.160106    0.160629
     0.160817    0.219477    0.223749    0.232340    0.238398    0.242659
     0.277592    0.352487    0.357235    0.357904    0.357975    0.358191
     0.366022    0.367994    0.380828    0.411945    0.430578    0.444529
     0.470351    0.474112    0.482198    0.491007    0.561678

 Minimum search - taking simple RFO step
 Searching for Lamda that Minimizes Along All modes
 Value Taken    Lamda =  -0.00000018
 Step Taken.  Stepsize is  0.001978

                             Maximum     Tolerance    Cnvgd?
         Gradient           0.000075      0.000300     YES
         Displacement       0.001052      0.001200     YES
         Energy change     -0.000002      0.000001      NO

 Final energy is   -363.489140504809     


 ******************************
 **  OPTIMIZATION CONVERGED  **
 ******************************

                       Coordinates (Angstroms)
     ATOM                X               Y               Z
      1  C         2.1673138343   -0.7032158888   -0.0000723101
      2  C         2.1225087876    0.6970436549   -0.0000111300
      3  C         0.9069260796    1.4141688458    0.0000806008
      4  C        -0.2478921846    0.6682051465    0.0000822140
      5  C        -0.2356074547   -0.7556028294    0.0000277487
      6  C         0.9946926336   -1.4473047583   -0.0000746537
      7  N        -1.5868139340    1.0680238096    0.0002035250
      8  C        -1.5786546291   -1.1715183895    0.0001343487
      9  C        -2.3730738324    0.0189590479   -0.0000697490
     10  H        -1.9393707554    2.0512887609    0.0003355812
     11  H        -1.9663990366   -2.1819505916    0.0001316646
     12  H        -3.4510221835    0.1413764099   -0.0001268970
     13  H         3.0530686689    1.2553477674   -0.0000192940
     14  H         0.8907026949    2.4961472536    0.0001255121
     15  H         3.1283424835   -1.2058135006   -0.0001184631
     16  H         1.0183737789   -2.5326022456   -0.0001027171

Z-matrix Print:
$molecule
0 1
C 
C  1 1.374797
H  2 1.082100 1 122.001709
N  1 1.397343 2 130.512973 3 -0.003639 0
H  4 1.044560 1 126.351944 2 -0.001171 0
C  4 1.311008 1 110.224784 2 179.989601 0
H  6 1.084877 4 120.372019 1 -179.993800 0
C  2 1.411350 1 116.601046 3 -179.998715 0
H  8 1.085194 2 118.499478 1 180.000000 0
C  8 1.400976 2 122.370912 1 -0.001188 0
H  10 1.084519 8 119.441320 2 -179.998565 0
C  10 1.388780 8 120.564536 2 0.001458 0
H  12 1.085556 10 121.147249 8 -179.998824 0
C  12 1.411414 10 118.257100 8 -0.001923 0
C  14 1.405973 12 133.447607 10 -179.995610 0
H  15 1.082275 14 128.200598 12 -0.001988 0
$end

 
 --------------------------------------------------------------
 
                    Orbital Energies (a.u.)
 --------------------------------------------------------------
 
 Alpha MOs
 -- Occupied --
-14.8203 -10.5890 -10.5829 -10.5548 -10.5477 -10.5470 -10.5469 -10.5434
-10.5368  -1.1074  -0.9461  -0.8762  -0.8398  -0.8012  -0.7126  -0.6785
 -0.6618  -0.6192  -0.5549  -0.5438  -0.5087  -0.5053  -0.5009  -0.4679
 -0.4517  -0.4143  -0.4058  -0.3970  -0.3359  -0.2834  -0.2414
 -- Virtual --
  0.0034   0.0101   0.0259   0.0314   0.0432   0.0463   0.0519   0.0668
  0.0673   0.0701   0.0747   0.0756   0.0988   0.1036   0.1088   0.1100
  0.1252   0.1383   0.1476   0.1499   0.1601   0.1645   0.1728   0.1793
  0.1859   0.1951   0.1972   0.2044   0.2104   0.2143   0.2244   0.2309
  0.2328   0.2405   0.2495   0.2520   0.2549   0.2600   0.2672   0.2754
  0.2891   0.2910   0.3084   0.3184   0.3247   0.3410   0.3493   0.3626
  0.3809   0.3983   0.4073   0.4365   0.4764   0.4920   0.5622   0.6277
  0.6699   0.7158   0.7189   0.7439   0.7625   0.7688   0.7755   0.7817
  0.7914   0.8031   0.8160   0.8231   0.8401   0.8431   0.8613   0.9013
  0.9340   0.9500   0.9613   0.9932   0.9997   1.0068   1.0141   1.0359
  1.0498   1.0719   1.0928   1.0948   1.1279   1.1503   1.1602   1.2126
  1.2161   1.2407   1.2572   1.2833   1.2937   1.3657   1.3702   1.3983
  1.4040   1.4468   1.4736   1.4818   1.5204   1.5258   1.5529   1.5617
  1.5774   1.6132   1.6883   1.8070   1.8775   1.9328   1.9435   1.9535
  1.9858   2.0305   2.0509   2.0551   2.1009   2.1305   2.1872   2.1995
  2.2154   2.2308   2.2791   2.2965   2.3151   2.3386   2.3609   2.4159
  2.4591   2.4953   2.5655   2.5981   2.6637   2.6760   2.6927   2.7181
  2.7565   2.8340   2.8702   2.8747   2.9674   3.0022   3.1237   3.2575
  3.4463   4.1872   4.2808   4.3175   4.3396   4.3863   4.4273   4.5053
  4.5457   4.8100
 --------------------------------------------------------------
 
          Ground-State Mulliken Net Atomic Charges

     Atom                 Charge (a.u.)
  ----------------------------------------
      1 C                    -0.049197
      2 C                    -0.457251
      3 C                    -0.077970
      4 C                    -0.914282
      5 C                     1.031408
      6 C                    -0.525028
      7 N                    -0.480287
      8 C                     0.068576
      9 C                    -0.273008
     10 H                     0.440370
     11 H                     0.212580
     12 H                     0.216820
     13 H                     0.195803
     14 H                     0.203675
     15 H                     0.200099
     16 H                     0.207693
  ----------------------------------------
  Sum of atomic charges =     0.000000

 -----------------------------------------------------------------
                    Cartesian Multipole Moments
 -----------------------------------------------------------------
    Charge (ESU x 10^10)
                -0.0000
    Dipole Moment (Debye)
         X      -1.6285      Y       1.8918      Z       0.0001
       Tot       2.4962
    Quadrupole Moments (Debye-Ang)
        XX     -45.0024     XY      -4.3086     YY     -44.2389
        XZ      -0.0003     YZ       0.0010     ZZ     -59.2335
    Octopole Moments (Debye-Ang^2)
       XXX     -16.2374    XXY      10.1572    XYY      -8.6284
       YYY      12.2225    XXZ      -0.0026    XYZ      -0.0012
       YYZ       0.0011    XZZ      -2.1268    YZZ       2.5406
       ZZZ      -0.0055
    Hexadecapole Moments (Debye-Ang^3)
      XXXX    -808.3731   XXXY     -24.2409   XXYY    -194.1926
      XYYY     -17.2685   YYYY    -368.7855   XXXZ       0.0125
      XXYZ       0.0015   XYYZ      -0.0018   YYYZ      -0.0015
      XXZZ    -189.4096   XYZZ      -2.5735   YYZZ     -94.6271
      XZZZ       0.0124   YZZZ      -0.0085   ZZZZ     -73.3368
 -----------------------------------------------------------------
Archival summary:
1\1\exp-1-30\OPT\ProcedureUnspecified\6-31+G*\187\scaparas\WedJun2315:16:532021WedJun2315:16:532021\0\\#,OPT,ProcedureUnspecified,6-31+G*,\\0,1\C\C,1,1.3748\H,2,1.0821,1,122.002\N,1,1.39734,2,130.513,3,-0.00363913,0\H,4,1.04456,1,126.352,2,-0.00117107,0\C,4,1.31101,1,110.225,2,179.99,0\H,6,1.08488,4,120.372,1,-179.994,0\C,2,1.41135,1,116.601,3,-179.999,0\H,8,1.08519,2,118.499,1,180,0\C,8,1.40098,2,122.371,1,-0.0011879,0\H,10,1.08452,8,119.441,2,-179.999,0\C,10,1.38878,8,120.565,2,0.00145769,0\H,12,1.08556,10,121.147,8,-179.999,0\C,12,1.41141,10,118.257,8,-0.00192262,0\C,14,1.40597,12,133.448,10,-179.996,0\H,15,1.08227,14,128.201,12,-0.00198842,0\\\@

 Total job time:  5766.77s(wall), 9107.54s(cpu) 
 Wed Jun 23 15:16:53 2021

        *************************************************************
        *                                                           *
        *  Thank you very much for using Q-Chem.  Have a nice day.  *
        *                                                           *
        *************************************************************


