
Running Job 1 of 1 QfuncsMN15-VI-1st.in
qchem QfuncsMN15-VI-1st.in_75729.0 /scratch/scaparas/job_3585206/qchem75729/ 0
/cm/shared/apps/spack/cpu/opt/spack/linux-centos8-zen2/gcc-10.2.0/qchem-5.3-5qddma6gy34jvefiv7mbcb7qm253n45r/exe/qcprog.exe_s QfuncsMN15-VI-1st.in_75729.0 /scratch/scaparas/job_3585206/qchem75729/
                  Welcome to Q-Chem
     A Quantum Leap Into The Future Of Chemistry


 Q-Chem 5.3, Q-Chem, Inc., Pleasanton, CA (2020)

 License issued to: University of California, San Diego (site)

 Yihan Shao,  Zhengting Gan,  E. Epifanovsky,  A. T. B. Gilbert,  M. Wormit,  
 J. Kussmann,  A. W. Lange,  A. Behn,  Jia Deng,  Xintian Feng,  D. Ghosh,  
 M. Goldey,  P. R. Horn,  L. D. Jacobson,  I. Kaliman,  T. Kus,  A. Landau,  
 Jie Liu,  E. I. Proynov,  R. M. Richard,  R. P. Steele,  E. J. Sundstrom,  
 H. L. Woodcock III,  P. M. Zimmerman,  D. Zuev,  B. Alam,  B. Albrecht,  
 A. Aldossary,  E. Alguire,  S. A. Baeppler,  D. Barton,  Z. Benda,  
 Y. A. Bernard,  E. J. Berquist,  K. B. Bravaya,  H. Burton,  K. Carter-Fenk,  
 D. Casanova,  Chun-Min Chang,  Yunqing Chen,  A. Chien,  K. D. Closser,  
 M. P. Coons,  S. Coriani,  S. Dasgupta,  A. L. Dempwolff,  M. Diedenhofen,  
 Hainam Do,  R. G. Edgar,  Po-Tung Fang,  S. Faraji,  S. Fatehi,  
 Qingguo Feng,  J. Fosso-Tande,  J. Gayvert,  Qinghui Ge,  A. Ghysels,  
 G. Gidofalvi,  J. Gomes,  J. Gonthier,  S. Gulania,  A. Gunina,  D. Hait,  
 M. W. D. Hanson-Heine,  S. Hammes-Schiffer,  P. H. P. Harbach,  
 A. W. Hauser,  M. F. Herbst,  J. E. Herr,  E. G. Hohenstein,  Z. C. Holden,  
 S. Houck,  Kerwin Hui,  B. C. Huynh,  M. Ivanov,  T.-C. Jagau,  Hyunjun Ji,  
 B. Kaduk,  K. Khistyaev,  Jaehoon Kim,  P. Klunzinger,  K. Koh,  
 D. Kosenkov,  L. Koulias,  T. Kowalczyk,  C. M. Krauter,  A. Kunitsa,  
 Ka Un Lao,  A. Laurent,  K. V. Lawler,  Joonho Lee,  D. Lefrancois,  
 S. Lehtola,  D. S. Levine,  Yi-Pei Li,  You-Sheng Lin,  Fenglai Liu,  
 Kuan-Yu Liu,  E. Livshits,  M. Loipersberger,  A. Luenser,  P. Manohar,  
 E. Mansoor,  S. F. Manzer,  Shan-Ping Mao,  Yuezhi Mao,  N. Mardirossian,  
 A. V. Marenich,  T. Markovich,  L. A. Martinez-Martinez,  S. A. Maurer,  
 N. J. Mayhall,  S. C. McKenzie,  J.-M. Mewes,  P. Morgante,  A. F. Morrison,  
 J. W. Mullinax,  K. Nanda,  T. S. Nguyen-Beck,  R. Olivares-Amaya,  
 K. J. Oosterbaan,  J. A. Parkhill,  S. K. Paul,  F. Pavosevic,  Zheng Pei,  
 T. M. Perrine,  F. Plasser,  P. Pokhilko,  S. Prager,  A. Prociuk,  
 E. Ramos,  B. Rana,  D. R. Rehn,  F. Rob,  E. Rossomme,  M. Scheurer,  
 M. Schneider,  N. Sergueev,  S. M. Sharada,  S. Sharma,  W. Skomorowski,  
 D. W. Small,  T. Stauch,  C. J. Stein,  T. Stein,  Yu-Chuan Su,  
 S. P. Veccham,  Zhen Tao,  A. J. W. Thom,  A. Tkatchenko,  T. Tsuchimochi,  
 N. M. Tubman,  L. Vogt,  M. L. Vidal,  O. Vydrov,  M. A. Watson,  J. Wenzel,  
 M. de Wergifosse,  T. A. Wesolowski,  A. White,  J. Witte,  A. Yamada,  
 Jun Yang,  K. Yao,  S. Yeganeh,  S. R. Yost,  Zhi-Qiang You,  A. Zech,  
 Igor Ying Zhang,  Xing Zhang,  Yan Zhao,  Ying Zhu,  B. R. Brooks,  
 G. K. L. Chan,  C. J. Cramer,  M. S. Gordon,  W. J. Hehre,  A. Klamt,  
 M. W. Schmidt,  C. D. Sherrill,  D. G. Truhlar,  A. Aspuru-Guzik,  R. Baer,  
 A. T. Bell,  N. A. Besley,  Jeng-Da Chai,  A. E. DePrince, III,  
 R. A. DiStasio Jr.,  A. Dreuw,  B. D. Dunietz,  T. R. Furlani,  
 Chao-Ping Hsu,  Yousung Jung,  Jing Kong,  D. S. Lambrecht,  WanZhen Liang,  
 C. Ochsenfeld,  V. A. Rassolov,  L. V. Slipchenko,  J. E. Subotnik,  
 T. Van Voorhis,  J. M. Herbert,  A. I. Krylov,  P. M. W. Gill,  M. Head-Gordon

 Contributors to earlier versions of Q-Chem not listed above: 
 R. D. Adamson,  B. Austin,  J. Baker,  G. J. O. Beran,  K. Brandhorst,  
 S. T. Brown,  E. F. C. Byrd,  A. K. Chakraborty,  C.-L. Cheng,  
 Siu Hung Chien,  D. M. Chipman,  D. L. Crittenden,  H. Dachsel,  
 R. J. Doerksen,  A. D. Dutoi,  L. Fusti-Molnar,  W. A. Goddard III,  
 A. Golubeva-Zadorozhnaya,  S. R. Gwaltney,  G. Hawkins,  A. Heyden,  
 S. Hirata,  G. Kedziora,  F. J. Keil,  C. Kelley,  Jihan Kim,  R. A. King,  
 R. Z. Khaliullin,  P. P. Korambath,  W. Kurlancheek,  A. M. Lee,  M. S. Lee,  
 S. V. Levchenko,  Ching Yeh Lin,  D. Liotard,  R. C. Lochan,  I. Lotan,  
 P. E. Maslen,  N. Nair,  D. P. O'Neill,  D. Neuhauser,  E. Neuscamman,  
 C. M. Oana,  R. Olson,  B. Peters,  R. Peverati,  P. A. Pieniazek,  
 Y. M. Rhee,  J. Ritchie,  M. A. Rohrdanz,  E. Rosta,  N. J. Russ,  
 H. F. Schaefer III,  N. E. Schultz,  N. Shenvi,  A. C. Simmonett,  A. Sodt,  
 D. Stuck,  K. S. Thanthiriwatte,  V. Vanovschi,  Tao Wang,  A. Warshel,  
 C. F. Williams,  Q. Wu,  X. Xu,  W. Zhang

 Please cite Q-Chem as follows:
 Y. Shao et al., Mol. Phys. 113, 184-215 (2015)
 DOI: 10.1080/00268976.2014.952696

 Q-Chem 5.3.1 for Intel X86 EM64T Linux

 Parts of Q-Chem use Armadillo 9.800.1 (Horizon Scraper).
 http://arma.sourceforge.net/

 Q-Chem begins on Wed Jun 23 13:41:43 2021  

Host: 
0

     Scratch files written to /scratch/scaparas/job_3585206/qchem75729//
 Aug2920 |scratch|qcdevops|jenkins|workspace|build_RNUM    
Processing $rem in /cm/shared/apps/spack/cpu/opt/spack/linux-centos8-zen2/gcc-10.2.0/qchem-5.3-5qddma6gy34jvefiv7mbcb7qm253n45r/config/preferences:
Processing $rem in /home/scaparas/.qchemrc:

Checking the input file for inconsistencies... 	...done.

--------------------------------------------------------------
User input:
--------------------------------------------------------------
$molecule
0 1
C   -2.1510630    0.6892080    0.0000880
C   -2.1279270   -0.7158180    0.0000750
C   -0.9322970   -1.4131000   -0.0000110
C    0.2469110   -0.6702010   -0.0000420
C    0.2481930    0.7482990    0.0000000
C   -0.9794740    1.4235260    0.0000320
N    1.5617740   -1.0775920   -0.0002850
C    1.6201330    1.1629000   -0.0001570
C    2.3820130    0.0308060    0.0002480
H    1.8763150   -2.0300110    0.0004380
H    1.9921730    2.1730100   -0.0003480
H    3.4525490   -0.0824250    0.0004080
H   -3.0615940   -1.2620200    0.0000880
H   -0.9172520   -2.4953420   -0.0000730
H   -3.1042030    1.2007850    0.0000900
H   -1.0093480    2.5054210   -0.0000150
$end

$rem
BASIS  =  6-31+G*
GUI  =  2
JOB_TYPE  =  Optimization
METHOD  = MN15
SCF_CONVERGENCE  =  8
THRESH = 12
CIS_N_ROOTS  = 3
CIS_SINGLETS = true
CIS_TRIPLETS = false
CIS_STATE_DERIV = 1
MEM_STATIC = 500
MEM_TOTAL = 3000
$end
--------------------------------------------------------------
 ----------------------------------------------------------------
             Standard Nuclear Orientation (Angstroms)
    I     Atom           X                Y                Z
 ----------------------------------------------------------------
    1      C       2.1510629040    -0.6892079969     0.0000583065
    2      C       2.1279268385     0.7158180020     0.0000481775
    3      C       0.9322968051     1.4130999466    -0.0000206639
    4      C      -0.2469111607     0.6702008918    -0.0000373513
    5      C      -0.2481930942    -0.7482991083     0.0000020775
    6      C       0.9794739374    -1.4235260513     0.0000165335
    7      N      -1.5617741827     1.0775918311    -0.0002621374
    8      C      -1.6201330769    -1.1629001718    -0.0001374500
    9      C      -2.3820131241    -0.0308062080     0.0002797387
   10      H      -1.8763152174     2.0300108152     0.0004667797
   11      H      -1.9921730325    -2.1730101887    -0.0003253498
   12      H      -3.4525491271     0.0824247420     0.0004541695
   13      H       3.0615938132     1.2620200454     0.0000497686
   14      H       0.9172517540     2.4953419460    -0.0000804893
   15      H       3.1042029277    -1.2007849526     0.0000467087
   16      H       1.0093479871    -2.5054210498    -0.0000328375
 ----------------------------------------------------------------
 Molecular Point Group                 C1    NOp =  1
 Largest Abelian Subgroup              C1    NOp =  1
 Nuclear Repulsion Energy =         401.33686680 hartrees
 There are       31 alpha and       31 beta electrons
 Requested basis set is 6-31+G(d)
 There are 59 shells and 185 basis functions

 Total QAlloc Memory Limit   3000 MB
 Mega-Array Size       489 MB
 MEM_STATIC part       500 MB
 A cutoff of  1.0D-12 yielded   1657 shell pairs
 There are     17105 function pairs
 Smallest overlap matrix eigenvalue = 1.26E-06

 Scale SEOQF with 1.000000e-01/1.000000e-01/1.000000e-01

 Standard Electronic Orientation quadrupole field applied
 Nucleus-field energy     =     0.0000000117 hartrees
 Guess from superposition of atomic densities
 Warning:  Energy on first SCF cycle will be non-variational
 SAD guess density has 62.000000 electrons

 -----------------------------------------------------------------------
  General SCF calculation program by
  Eric Jon Sundstrom, Paul Horn, Yuezhi Mao, Dmitri Zuev, Alec White,
  David Stuck, Shaama M.S., Shane Yost, Joonho Lee, David Small,
  Daniel Levine, Susi Lehtola, Hugh Burton, Evgeny Epifanovsky,
  Bang C. Huynh
 -----------------------------------------------------------------------
 Exchange:     0.4400 Hartree-Fock + 1.0000 MN15
 Correlation:  1.0000 MN15
 Using SG-3 standard quadrature grid
 using 4 threads for integral computing
 -------------------------------------------------------
 OpenMP Integral computing Module                
 Release: version 1.0, May 2013, Q-Chem Inc. Pittsburgh 
 -------------------------------------------------------
 A restricted SCF calculation will be
 performed using DIIS
 SCF converges when DIIS error is below 1.0e-08
 ---------------------------------------
  Cycle       Energy         DIIS error
 ---------------------------------------
    1    -366.1446785733      5.61e-02  
    2    -363.2973961013      4.24e-03  
    3    -363.3132309892      4.07e-03  
    4    -363.3871190261      9.39e-04  
    5    -363.3903787637      3.88e-04  
    6    -363.3910032045      7.59e-05  
    7    -363.3910243041      3.02e-05  
    8    -363.3910282357      4.78e-06  
    9    -363.3910283252      2.82e-06  
   10    -363.3910283666      6.07e-07  
   11    -363.3910283691      3.38e-07  
   12    -363.3910283697      6.78e-08  
   13    -363.3910283697      4.08e-08  
   14    -363.3910283697      1.21e-08  
   15    -363.3910283697      3.52e-09  Convergence criterion met
 ---------------------------------------
 SCF time:   CPU 297.47s  wall 75.00s 
 SCF   energy in the final basis set =     -363.3910283697
 Total energy in the final basis set =     -363.3910283697
 
 Direct TDDFT/TDA calculation will be performed
 Exchange:     0.4400 Hartree-Fock + 1.0000 MN15
 Correlation:  1.0000 MN15
 Using SG-3 standard quadrature grid
 Singlet excitation energies requested
 CIS energy converged when residual is below 10e- 6
 ---------------------------------------------------
 Iter    Rts Conv    Rts Left    Ttl Dev     Max Dev
 ---------------------------------------------------
   1         0           3      0.003789    0.001808
   2         0           3      0.001133    0.000564
   3         0           3      0.000470    0.000241
   4         0           3      0.000183    0.000083
   5         0           3      0.000067    0.000026
   6         0           3      0.000023    0.000008
   7         0           3      0.000010    0.000004
   8         2           1      0.000003    0.000002
   9         3           0      0.000002    0.000001    Roots Converged
 ---------------------------------------------------
 
 ---------------------------------------------------
         TDDFT/TDA Excitation Energies              
 ---------------------------------------------------

 Excited state   1: excitation energy (eV) =    5.1187
 Total energy for state  1:                  -363.20291823 au
    Multiplicity: Singlet
    Trans. Mom.:  0.2536 X   0.3727 Y  -0.0001 Z
    Strength   :     0.0254830605
    D(   30) --> V(    1) amplitude =  0.7824
    D(   31) --> V(    3) amplitude = -0.5530

 Excited state   2: excitation energy (eV) =    5.2126
 Total energy for state  2:                  -363.19946921 au
    Multiplicity: Singlet
    Trans. Mom.:  0.7769 X  -0.5976 Y  -0.0002 Z
    Strength   :     0.1226874803
    D(   30) --> V(    3) amplitude =  0.3057
    D(   31) --> V(    1) amplitude =  0.8933

 Excited state   3: excitation energy (eV) =    5.9300
 Total energy for state  3:                  -363.17310579 au
    Multiplicity: Singlet
    Trans. Mom.: -0.0003 X   0.0002 Y  -0.1888 Z
    Strength   :     0.0051809897
    D(   31) --> V(    2) amplitude =  0.9690
 
 ---------------------------------------------------
 Calculating Relaxed Density
 ---------------------------------------------------
 Iter    Rts Conv    Rts Left    Ttl Dev     Max Dev
 ---------------------------------------------------
   1         0           3      0.001091    0.000531
   2         0           3      0.000463    0.000232
   3         0           3      0.000124    0.000050
   4         0           3      0.000039    0.000019
   5         0           3      0.000009    0.000004
   6         3           0      0.000000    0.000000    Roots Converged
 ---------------------------------------------------
  SETman timing summary (seconds)
  CPU time              1099.78s
  System time              0.00s
  Wall time              276.55s
 
 --------------------------------------------------------------
 
                    Orbital Energies (a.u.)
 --------------------------------------------------------------
 
 Alpha MOs
 -- Occupied --
-14.1727 -10.1062 -10.1034 -10.0728 -10.0681 -10.0677 -10.0674 -10.0624
-10.0594  -1.0277  -0.8864  -0.8273  -0.7781  -0.7596  -0.6679  -0.6365
 -0.6241  -0.5842  -0.5228  -0.5131  -0.4781  -0.4725  -0.4700  -0.4513
 -0.4309  -0.3931  -0.3794  -0.3724  -0.3183  -0.2562  -0.2393
 -- Virtual --
  0.0095   0.0461   0.0469   0.0632   0.0699   0.0811   0.0849   0.0864
  0.0999   0.1079   0.1138   0.1141   0.1334   0.1372   0.1494   0.1536
  0.1565   0.1753   0.1831   0.1852   0.1991   0.2066   0.2106   0.2121
  0.2148   0.2205   0.2293   0.2379   0.2382   0.2406   0.2447   0.2504
  0.2626   0.2670   0.2742   0.2803   0.2813   0.2877   0.2966   0.3018
  0.3118   0.3173   0.3216   0.3409   0.3473   0.3542   0.3604   0.3784
  0.4003   0.4092   0.4187   0.4440   0.4733   0.4929   0.5533   0.6164
  0.6624   0.6934   0.7066   0.7238   0.7456   0.7465   0.7535   0.7606
  0.7680   0.7774   0.7836   0.8008   0.8185   0.8230   0.8374   0.8812
  0.9193   0.9316   0.9421   0.9620   0.9681   0.9756   0.9942   1.0049
  1.0288   1.0569   1.0733   1.0937   1.1203   1.1346   1.1370   1.1961
  1.1994   1.2234   1.2375   1.2477   1.2709   1.3275   1.3337   1.3408
  1.3821   1.4154   1.4311   1.4597   1.4612   1.4624   1.4907   1.4980
  1.5550   1.5986   1.6525   1.7827   1.8307   1.8662   1.8769   1.9033
  1.9332   1.9658   1.9746   1.9842   2.0445   2.0731   2.1152   2.1427
  2.1450   2.1714   2.2197   2.2244   2.2283   2.2533   2.2784   2.3383
  2.3707   2.4048   2.5105   2.5149   2.5857   2.6074   2.6126   2.6402
  2.6778   2.7558   2.7876   2.7913   2.8961   2.9150   3.0407   3.1566
  3.3498   4.1022   4.1888   4.2184   4.2520   4.2860   4.3205   4.3976
  4.4338   4.6910
 --------------------------------------------------------------
 
          Ground-State Mulliken Net Atomic Charges

     Atom                 Charge (a.u.)
  ----------------------------------------
      1 C                     0.001777
      2 C                    -0.431256
      3 C                    -0.047983
      4 C                    -0.650117
      5 C                     0.909679
      6 C                    -0.627027
      7 N                    -0.561087
      8 C                     0.316410
      9 C                    -0.333772
     10 H                     0.399905
     11 H                     0.178193
     12 H                     0.186449
     13 H                     0.162758
     14 H                     0.165593
     15 H                     0.161549
     16 H                     0.168931
  ----------------------------------------
  Sum of atomic charges =     0.000000

 -----------------------------------------------------------------
                    Cartesian Multipole Moments
 -----------------------------------------------------------------
    Charge (ESU x 10^10)
                -0.0000
    Dipole Moment (Debye)
         X      -1.5037      Y       1.5518      Z       0.0010
       Tot       2.1609
    Quadrupole Moments (Debye-Ang)
        XX     -45.4495     XY      -3.1455     YY     -44.6698
        XZ      -0.0032     YZ       0.0032     ZZ     -58.5772
    Octopole Moments (Debye-Ang^2)
       XXX     -15.1371    XXY       8.2677    XYY      -7.9811
       YYY      10.6323    XXZ       0.0073    XYZ      -0.0066
       YYZ       0.0021    XZZ      -2.0902    YZZ       2.0386
       ZZZ      -0.0011
    Hexadecapole Moments (Debye-Ang^3)
      XXXX    -816.1589   XXXY     -21.6403   XXYY    -196.6683
      XYYY     -19.9906   YYYY    -370.8645   XXXZ      -0.0231
      XXYZ       0.0128   XYYZ      -0.0070   YYYZ       0.0139
      XXZZ    -187.4606   XYZZ      -3.9171   YYZZ     -92.8694
      XZZZ      -0.0009   YZZZ       0.0029   ZZZZ     -72.1560
 -----------------------------------------------------------------
 Calculating analytic gradient of the CIS energy
 CIS relaxed dipole moment
            1
    1  -0.7688267
    2   0.4607001
    3   0.0002282
	Magnitude:	 0.896 au	 2.278 Debye
 CIS 1 State Energy is -363.2029182346
 Gradient of the state energy (including CIS Excitation Energy)
            1           2           3           4           5           6
    1  -0.0246938  -0.0273568   0.0131699   0.0106207   0.0096334   0.0217621
    2  -0.0033915  -0.0056632  -0.0250530  -0.0227325   0.0234905   0.0274346
    3   0.0000002  -0.0000003  -0.0000028   0.0000108   0.0000332   0.0000001
            7           8           9          10          11          12
    1  -0.0203089  -0.0084333   0.0247366   0.0019237   0.0011349   0.0036323
    2  -0.0015759   0.0060461   0.0051093  -0.0081026   0.0042964  -0.0002555
    3  -0.0000359  -0.0000342   0.0000371  -0.0000029  -0.0000083   0.0000048
           13          14          15          16
    1  -0.0032387   0.0003707  -0.0033229   0.0003700
    2  -0.0013520  -0.0034644   0.0019121   0.0033014
    3  -0.0000008   0.0000012  -0.0000001  -0.0000020
 Gradient time:  CPU 79.91 s  wall 20.19 s
 Geometry Optimization Parameters
   NAtoms,    NIC,     NZ,  NCons,   NDum,   NFix, NCnnct, MaxDiis
       16     116       0       0       0       0       0       0


** GEOMETRY OPTIMIZATION IN DELOCALIZED INTERNAL COORDINATES **
   Searching for a Minimum

   Optimization Cycle:   1

                       Coordinates (Angstroms)
     ATOM                X               Y               Z
      1  C         2.1510629040   -0.6892079969    0.0000583065
      2  C         2.1279268385    0.7158180020    0.0000481775
      3  C         0.9322968051    1.4130999466   -0.0000206639
      4  C        -0.2469111607    0.6702008918   -0.0000373513
      5  C        -0.2481930942   -0.7482991083    0.0000020775
      6  C         0.9794739374   -1.4235260513    0.0000165335
      7  N        -1.5617741827    1.0775918311   -0.0002621374
      8  C        -1.6201330769   -1.1629001718   -0.0001374500
      9  C        -2.3820131241   -0.0308062080    0.0002797387
     10  H        -1.8763152174    2.0300108152    0.0004667797
     11  H        -1.9921730325   -2.1730101887   -0.0003253498
     12  H        -3.4525491271    0.0824247420    0.0004541695
     13  H         3.0615938132    1.2620200454    0.0000497686
     14  H         0.9172517540    2.4953419460   -0.0000804893
     15  H         3.1042029277   -1.2007849526    0.0000467087
     16  H         1.0093479871   -2.5054210498   -0.0000328375
   Point Group: c1    Number of degrees of freedom:    42


   Energy is   -363.202918235


 Attempting to generate delocalized internal coordinates
 Initial Hessian constructed with Jon Baker's OPTIMIZE code

 42 Hessian modes will be used to form the next step
  Hessian Eigenvalues:
     0.018594    0.019738    0.020011    0.020794    0.021683    0.022200
     0.022636    0.023004    0.023236    0.023608    0.023851    0.023984
     0.024127    0.160000    0.160000    0.160000    0.160000    0.160000
     0.160000    0.160000    0.220000    0.221879    0.226618    0.240111
     0.246509    0.357123    0.357170    0.357835    0.357899    0.364196
     0.364272    0.370088    0.384319    0.426334    0.434649    0.457693
     0.466917    0.471622    0.474685    0.475669    0.481247    0.509555

 Minimum search - taking simple RFO step
 Searching for Lamda that Minimizes Along All modes
 Value Taken    Lamda =  -0.01184142
 Step Taken.  Stepsize is  0.162369

                             Maximum     Tolerance    Cnvgd?
         Gradient           0.046100      0.000300      NO
         Displacement       0.104035      0.001200      NO
         Energy change     *********      0.000001      NO


 New Cartesian Coordinates Obtained by Inverse Iteration

 Displacement from previous Coordinates is:  0.245997
 ----------------------------------------------------------------
             Standard Nuclear Orientation (Angstroms)
    I     Atom           X                Y                Z
 ----------------------------------------------------------------
    1      C       2.1747431863    -0.6927873650    -0.0000316221
    2      C       2.1654627344     0.7386942106     0.0000003083
    3      C       0.9398367053     1.4519121241     0.0000372422
    4      C      -0.2483845862     0.6849405545     0.0000269231
    5      C      -0.2616125101    -0.7696085272     0.0000005999
    6      C       0.9730968058    -1.4576772732    -0.0000144900
    7      N      -1.5646932713     1.0790193398    -0.0000887853
    8      C      -1.6397488136    -1.1784880391     0.0000610023
    9      C      -2.4139358427    -0.0372392649     0.0000209410
   10      H      -1.8765226614     2.0418780852     0.0006253858
   11      H      -2.0120804919    -2.1951244733     0.0000150994
   12      H      -3.4890994264     0.0808384786    -0.0000393696
   13      H       3.1073931339     1.2805742690    -0.0000135362
   14      H       0.9161133232     2.5389774840     0.0000258007
   15      H       3.1316102982    -1.2090125831    -0.0000788711
   16      H       1.0009163679    -2.5443445273    -0.0000206473
 ----------------------------------------------------------------
 Molecular Point Group                 C1    NOp =  1
 Largest Abelian Subgroup              C1    NOp =  1
 Nuclear Repulsion Energy =         395.99040832 hartrees
 There are       31 alpha and       31 beta electrons
 Applying Cartesian multipole field
    Component          Value
    ---------          -----
     (2,0,0)        1.00000E-11
     (0,2,0)        2.00000E-11
     (0,0,2)       -3.00000E-11
 Nucleus-field energy     =     0.0000000120 hartrees
 Requested basis set is 6-31+G(d)
 There are 59 shells and 185 basis functions
 A cutoff of  1.0D-12 yielded   1656 shell pairs
 There are     17099 function pairs
 Smallest overlap matrix eigenvalue = 1.49E-06
 Guess MOs from SCF MO coefficient file

 -----------------------------------------------------------------------
  General SCF calculation program by
  Eric Jon Sundstrom, Paul Horn, Yuezhi Mao, Dmitri Zuev, Alec White,
  David Stuck, Shaama M.S., Shane Yost, Joonho Lee, David Small,
  Daniel Levine, Susi Lehtola, Hugh Burton, Evgeny Epifanovsky,
  Bang C. Huynh
 -----------------------------------------------------------------------
 Exchange:     0.4400 Hartree-Fock + 1.0000 MN15
 Correlation:  1.0000 MN15
 Using SG-3 standard quadrature grid
 using 4 threads for integral computing
 -------------------------------------------------------
 OpenMP Integral computing Module                
 Release: version 1.0, May 2013, Q-Chem Inc. Pittsburgh 
 -------------------------------------------------------
 A restricted SCF calculation will be
 performed using DIIS
 SCF converges when DIIS error is below 1.0e-08
 ---------------------------------------
  Cycle       Energy         DIIS error
 ---------------------------------------
    1    -363.3847458566      7.51e-04  
    2    -363.3871791653      2.35e-04  
    3    -363.3873101934      1.71e-04  
    4    -363.3874295635      3.80e-05  
    5    -363.3874352112      1.16e-05  
    6    -363.3874359356      4.72e-06  
    7    -363.3874360590      2.09e-06  
    8    -363.3874360914      4.69e-07  
    9    -363.3874360940      3.64e-07  
   10    -363.3874360949      6.00e-08  
   11    -363.3874360949      3.95e-08  
   12    -363.3874360949      6.20e-09  Convergence criterion met
 ---------------------------------------
 SCF time:   CPU 236.79s  wall 59.00s 
 SCF   energy in the final basis set =     -363.3874360949
 Total energy in the final basis set =     -363.3874360949
 
 Direct TDDFT/TDA calculation will be performed
 Exchange:     0.4400 Hartree-Fock + 1.0000 MN15
 Correlation:  1.0000 MN15
 Using SG-3 standard quadrature grid
 Singlet excitation energies requested
 CIS energy converged when residual is below 10e- 6
 ---------------------------------------------------
 Iter    Rts Conv    Rts Left    Ttl Dev     Max Dev
 ---------------------------------------------------
   1         0           3      0.004712    0.001966
   2         0           3      0.001448    0.000710
   3         0           3      0.000452    0.000214
   4         0           3      0.000175    0.000089
   5         0           3      0.000125    0.000096
   6         0           3      0.000093    0.000085
   7         1           2      0.000290    0.000288
   8         2           1      0.000486    0.000485
   9         2           1      0.000164    0.000163
  10         2           1      0.000049    0.000048
  11         2           1      0.000020    0.000019
  12         2           1      0.000012    0.000010
  13         2           1      0.000007    0.000006
  14         2           1      0.000005    0.000004
  15         2           1      0.000003    0.000002
  16         3           0      0.000002    0.000001    Roots Converged
 ---------------------------------------------------
 
 ---------------------------------------------------
         TDDFT/TDA Excitation Energies              
 ---------------------------------------------------

 Excited state   1: excitation energy (eV) =    4.8633
 Total energy for state  1:                  -363.20871211 au
    Multiplicity: Singlet
    Trans. Mom.: -0.3375 X  -0.4273 Y   0.0000 Z
    Strength   :     0.0353275980
    D(   30) --> V(    1) amplitude =  0.7790
    D(   31) --> V(    1) amplitude = -0.2572
    D(   31) --> V(    2) amplitude = -0.5279

 Excited state   2: excitation energy (eV) =    5.0614
 Total energy for state  2:                  -363.20143444 au
    Multiplicity: Singlet
    Trans. Mom.: -0.7366 X   0.6140 Y   0.0000 Z
    Strength   :     0.1140256632
    D(   30) --> V(    2) amplitude =  0.3161
    D(   31) --> V(    1) amplitude =  0.8701
    D(   31) --> V(    2) amplitude = -0.2318

 Excited state   3: excitation energy (eV) =    5.9248
 Total energy for state  3:                  -363.16970237 au
    Multiplicity: Singlet
    Trans. Mom.:  0.0001 X   0.0001 Y   0.1773 Z
    Strength   :     0.0045645408
    D(   31) --> V(    3) amplitude = -0.9675
 
 ---------------------------------------------------
 Calculating Relaxed Density
 ---------------------------------------------------
 Iter    Rts Conv    Rts Left    Ttl Dev     Max Dev
 ---------------------------------------------------
   1         0           3      0.001105    0.000561
   2         0           3      0.000465    0.000242
   3         0           3      0.000127    0.000055
   4         0           3      0.000042    0.000023
   5         0           3      0.000011    0.000006
   6         2           1      0.000001    0.000001
   7         3           0      0.000000    0.000000    Roots Converged
 ---------------------------------------------------
  SETman timing summary (seconds)
  CPU time              1299.65s
  System time              0.00s
  Wall time              326.76s
 
 --------------------------------------------------------------
 
                    Orbital Energies (a.u.)
 --------------------------------------------------------------
 
 Alpha MOs
 -- Occupied --
-14.1760 -10.1125 -10.1114 -10.0808 -10.0773 -10.0764 -10.0754 -10.0714
-10.0658  -1.0213  -0.8737  -0.8246  -0.7699  -0.7568  -0.6652  -0.6348
 -0.6201  -0.5786  -0.5261  -0.5091  -0.4739  -0.4689  -0.4673  -0.4486
 -0.4324  -0.3921  -0.3740  -0.3713  -0.3185  -0.2515  -0.2391
 -- Virtual --
  0.0025   0.0405   0.0458   0.0632   0.0691   0.0772   0.0838   0.0854
  0.0999   0.1078   0.1122   0.1125   0.1326   0.1365   0.1488   0.1520
  0.1554   0.1740   0.1814   0.1836   0.1967   0.2050   0.2057   0.2103
  0.2103   0.2191   0.2265   0.2334   0.2348   0.2392   0.2406   0.2471
  0.2596   0.2631   0.2702   0.2788   0.2802   0.2833   0.2951   0.2991
  0.3112   0.3135   0.3187   0.3330   0.3377   0.3457   0.3545   0.3697
  0.3882   0.4018   0.4083   0.4367   0.4582   0.4842   0.5424   0.5923
  0.6299   0.6940   0.7037   0.7233   0.7381   0.7453   0.7460   0.7573
  0.7608   0.7755   0.7760   0.7985   0.8109   0.8158   0.8310   0.8769
  0.9129   0.9277   0.9368   0.9617   0.9660   0.9747   0.9920   1.0054
  1.0170   1.0543   1.0716   1.0886   1.1161   1.1285   1.1292   1.1887
  1.1929   1.2164   1.2386   1.2422   1.2596   1.3235   1.3274   1.3413
  1.3741   1.4092   1.4151   1.4443   1.4564   1.4650   1.4848   1.4884
  1.5410   1.5885   1.6388   1.7733   1.8084   1.8493   1.8688   1.8907
  1.8967   1.9504   1.9551   1.9746   2.0124   2.0215   2.0831   2.0947
  2.1148   2.1512   2.1876   2.1946   2.2185   2.2198   2.2532   2.3096
  2.3554   2.3888   2.4828   2.4878   2.5617   2.5645   2.5911   2.6063
  2.6450   2.7243   2.7467   2.7680   2.8856   2.8896   3.0031   3.1219
  3.2697   4.0860   4.1587   4.2116   4.2429   4.2756   4.3126   4.3853
  4.4249   4.6617
 --------------------------------------------------------------
 
          Ground-State Mulliken Net Atomic Charges

     Atom                 Charge (a.u.)
  ----------------------------------------
      1 C                    -0.029305
      2 C                    -0.384106
      3 C                    -0.104771
      4 C                    -0.590994
      5 C                     0.832759
      6 C                    -0.584135
      7 N                    -0.560027
      8 C                     0.290789
      9 C                    -0.315417
     10 H                     0.401132
     11 H                     0.181201
     12 H                     0.190391
     13 H                     0.167469
     14 H                     0.169146
     15 H                     0.163057
     16 H                     0.172811
  ----------------------------------------
  Sum of atomic charges =     0.000000

 -----------------------------------------------------------------
                    Cartesian Multipole Moments
 -----------------------------------------------------------------
    Charge (ESU x 10^10)
                 0.0000
    Dipole Moment (Debye)
         X      -1.5924      Y       1.5132      Z       0.0009
       Tot       2.1967
    Quadrupole Moments (Debye-Ang)
        XX     -45.2909     XY      -2.9492     YY     -44.4997
        XZ      -0.0022     YZ       0.0028     ZZ     -59.1910
    Octopole Moments (Debye-Ang^2)
       XXX     -15.9697    XXY       8.4192    XYY      -8.0171
       YYY      10.4396    XXZ       0.0022    XYZ      -0.0055
       YYZ       0.0049    XZZ      -2.4934    YZZ       2.0349
       ZZZ      -0.0015
    Hexadecapole Moments (Debye-Ang^3)
      XXXX    -829.5836   XXXY     -22.3177   XXYY    -201.7613
      XYYY     -21.9411   YYYY    -381.1678   XXXZ      -0.0039
      XXYZ       0.0104   XYYZ      -0.0100   YYYZ       0.0105
      XXZZ    -193.1036   XYZZ      -4.7504   YYZZ     -96.2835
      XZZZ       0.0037   YZZZ      -0.0005   ZZZZ     -73.9738
 -----------------------------------------------------------------
 Calculating analytic gradient of the CIS energy
 CIS relaxed dipole moment
            1
    1  -0.7315163
    2   0.4503872
    3   0.0002856
	Magnitude:	 0.859 au	 2.183 Debye
 CIS 1 State Energy is -363.2087121138
 Gradient of the state energy (including CIS Excitation Energy)
            1           2           3           4           5           6
    1   0.0004181  -0.0006592   0.0021443   0.0025612   0.0007038   0.0030448
    2  -0.0045158   0.0029734  -0.0007290  -0.0035627   0.0043875   0.0013225
    3   0.0000000  -0.0000009  -0.0000015   0.0000060  -0.0000015   0.0000007
            7           8           9          10          11          12
    1  -0.0080493  -0.0036922   0.0045031   0.0002076  -0.0002708  -0.0008501
    2   0.0003512  -0.0043519   0.0042947  -0.0001612  -0.0000232  -0.0007312
    3  -0.0000137   0.0000079  -0.0000037   0.0000084  -0.0000011  -0.0000004
           13          14          15          16
    1   0.0004813   0.0000961   0.0003299  -0.0009686
    2   0.0006905   0.0006346   0.0001825  -0.0007619
    3  -0.0000000   0.0000008  -0.0000005  -0.0000006
 Gradient time:  CPU 78.67 s  wall 19.78 s
 Geometry Optimization Parameters
   NAtoms,    NIC,     NZ,  NCons,   NDum,   NFix, NCnnct, MaxDiis
       16     116       0       0       0       0       0       0

 Cartesian Hessian Update
 Hessian updated using BFGS update


** GEOMETRY OPTIMIZATION IN DELOCALIZED INTERNAL COORDINATES **
   Searching for a Minimum

   Optimization Cycle:   2

                       Coordinates (Angstroms)
     ATOM                X               Y               Z
      1  C         2.1747431863   -0.6927873650   -0.0000316221
      2  C         2.1654627344    0.7386942106    0.0000003083
      3  C         0.9398367053    1.4519121241    0.0000372422
      4  C        -0.2483845862    0.6849405545    0.0000269231
      5  C        -0.2616125101   -0.7696085272    0.0000005999
      6  C         0.9730968058   -1.4576772732   -0.0000144900
      7  N        -1.5646932713    1.0790193398   -0.0000887853
      8  C        -1.6397488136   -1.1784880391    0.0000610023
      9  C        -2.4139358427   -0.0372392649    0.0000209410
     10  H        -1.8765226614    2.0418780852    0.0006253858
     11  H        -2.0120804919   -2.1951244733    0.0000150994
     12  H        -3.4890994264    0.0808384786   -0.0000393696
     13  H         3.1073931339    1.2805742690   -0.0000135362
     14  H         0.9161133232    2.5389774840    0.0000258007
     15  H         3.1316102982   -1.2090125831   -0.0000788711
     16  H         1.0009163679   -2.5443445273   -0.0000206473
   Point Group: c1    Number of degrees of freedom:    42


   Energy is   -363.208712114

 Hessian updated using BFGS update

 40 Hessian modes will be used to form the next step
  Hessian Eigenvalues:
     0.018594    0.019738    0.020011    0.020794    0.021683    0.022200
     0.022636    0.023004    0.023236    0.023608    0.023851    0.023984
     0.024127    0.159684    0.160000    0.160000    0.160000    0.160204
     0.214918    0.220378    0.226487    0.240615    0.246142    0.357141
     0.357377    0.357791    0.358490    0.364113    0.364695    0.370596
     0.381125    0.426409    0.435697    0.444747    0.463421    0.471722
     0.473391    0.475320    0.494463    0.544413

 Minimum search - taking simple RFO step
 Searching for Lamda that Minimizes Along All modes
 Value Taken    Lamda =  -0.00026865
 Step Taken.  Stepsize is  0.029916

                             Maximum     Tolerance    Cnvgd?
         Gradient           0.004724      0.000300      NO
         Displacement       0.014289      0.001200      NO
         Energy change     -0.005794      0.000001      NO


 New Cartesian Coordinates Obtained by Inverse Iteration

 Displacement from previous Coordinates is:  0.038542
 ----------------------------------------------------------------
             Standard Nuclear Orientation (Angstroms)
    I     Atom           X                Y                Z
 ----------------------------------------------------------------
    1      C       2.1692956534    -0.6895159691    -0.0000225981
    2      C       2.1618492153     0.7386454035     0.0000069240
    3      C       0.9364903462     1.4537178406     0.0000248047
    4      C      -0.2474876955     0.6840773933     0.0000205174
    5      C      -0.2619287132    -0.7732364185    -0.0000111624
    6      C       0.9702625525    -1.4608230431    -0.0000248923
    7      N      -1.5580357074     1.0767708311    -0.0000453550
    8      C      -1.6371345942    -1.1762613818     0.0000258676
    9      C      -2.4146750838    -0.0382937726     0.0000714925
   10      H      -1.8684138384     2.0405653735     0.0005484722
   11      H      -2.0077629398    -2.1934907911    -0.0000321335
   12      H      -3.4881283992     0.0859896776     0.0000288289
   13      H       3.1048318701     1.2766373863     0.0000035553
   14      H       0.9108636897     2.5399107366     0.0000090603
   15      H       3.1258612838    -1.2059167302    -0.0000510729
   16      H       1.0072073118    -2.5462240436    -0.0000263277
 ----------------------------------------------------------------
 Molecular Point Group                 C1    NOp =  1
 Largest Abelian Subgroup              C1    NOp =  1
 Nuclear Repulsion Energy =         396.34429260 hartrees
 There are       31 alpha and       31 beta electrons
 Applying Cartesian multipole field
    Component          Value
    ---------          -----
     (2,0,0)        1.00000E-11
     (0,2,0)        2.00000E-11
     (0,0,2)       -3.00000E-11
 Nucleus-field energy     =     0.0000000120 hartrees
 Requested basis set is 6-31+G(d)
 There are 59 shells and 185 basis functions
 A cutoff of  1.0D-12 yielded   1656 shell pairs
 There are     17099 function pairs
 Smallest overlap matrix eigenvalue = 1.47E-06
 Guess MOs from SCF MO coefficient file

 -----------------------------------------------------------------------
  General SCF calculation program by
  Eric Jon Sundstrom, Paul Horn, Yuezhi Mao, Dmitri Zuev, Alec White,
  David Stuck, Shaama M.S., Shane Yost, Joonho Lee, David Small,
  Daniel Levine, Susi Lehtola, Hugh Burton, Evgeny Epifanovsky,
  Bang C. Huynh
 -----------------------------------------------------------------------
 Exchange:     0.4400 Hartree-Fock + 1.0000 MN15
 Correlation:  1.0000 MN15
 Using SG-3 standard quadrature grid
 using 4 threads for integral computing
 -------------------------------------------------------
 OpenMP Integral computing Module                
 Release: version 1.0, May 2013, Q-Chem Inc. Pittsburgh 
 -------------------------------------------------------
 A restricted SCF calculation will be
 performed using DIIS
 SCF converges when DIIS error is below 1.0e-08
 ---------------------------------------
  Cycle       Energy         DIIS error
 ---------------------------------------
    1    -363.3870191519      1.33e-04  
    2    -363.3871182697      2.95e-05  
    3    -363.3871181843      3.54e-05  
    4    -363.3871229526      5.86e-06  
    5    -363.3871231087      2.87e-06  
    6    -363.3871231499      8.01e-07  
    7    -363.3871231547      3.15e-07  
    8    -363.3871231554      1.26e-07  
    9    -363.3871231556      3.62e-08  
   10    -363.3871231556      1.99e-08  
   11    -363.3871231556      4.71e-09  Convergence criterion met
 ---------------------------------------
 SCF time:   CPU 217.31s  wall 55.00s 
 SCF   energy in the final basis set =     -363.3871231556
 Total energy in the final basis set =     -363.3871231556
 
 Direct TDDFT/TDA calculation will be performed
 Exchange:     0.4400 Hartree-Fock + 1.0000 MN15
 Correlation:  1.0000 MN15
 Using SG-3 standard quadrature grid
 Singlet excitation energies requested
 CIS energy converged when residual is below 10e- 6
 ---------------------------------------------------
 Iter    Rts Conv    Rts Left    Ttl Dev     Max Dev
 ---------------------------------------------------
   1         0           3      0.004730    0.001966
   2         0           3      0.001466    0.000730
   3         0           3      0.000455    0.000217
   4         0           3      0.000175    0.000089
   5         0           3      0.000124    0.000096
   6         0           3      0.000088    0.000081
   7         1           2      0.000149    0.000147
   8         2           1      0.000598    0.000597
   9         2           1      0.000203    0.000202
  10         2           1      0.000062    0.000061
  11         2           1      0.000024    0.000023
  12         2           1      0.000014    0.000013
  13         2           1      0.000009    0.000008
  14         2           1      0.000005    0.000005
  15         2           1      0.000003    0.000003
  16         2           1      0.000002    0.000001
  17         3           0      0.000001    0.000000    Roots Converged
 ---------------------------------------------------
 
 ---------------------------------------------------
         TDDFT/TDA Excitation Energies              
 ---------------------------------------------------

 Excited state   1: excitation energy (eV) =    4.8500
 Total energy for state  1:                  -363.20888803 au
    Multiplicity: Singlet
    Trans. Mom.: -0.3521 X  -0.4559 Y   0.0000 Z
    Strength   :     0.0394269194
    D(   30) --> V(    1) amplitude =  0.7739
    D(   31) --> V(    1) amplitude = -0.2938
    D(   31) --> V(    2) amplitude =  0.5127

 Excited state   2: excitation energy (eV) =    5.0607
 Total energy for state  2:                  -363.20114644 au
    Multiplicity: Singlet
    Trans. Mom.: -0.7459 X   0.6115 Y   0.0001 Z
    Strength   :     0.1153411627
    D(   30) --> V(    1) amplitude =  0.2236
    D(   30) --> V(    2) amplitude = -0.3104
    D(   31) --> V(    1) amplitude =  0.8588
    D(   31) --> V(    2) amplitude =  0.2500

 Excited state   3: excitation energy (eV) =    5.9255
 Total energy for state  3:                  -363.16936372 au
    Multiplicity: Singlet
    Trans. Mom.: -0.0002 X  -0.0000 Y  -0.1730 Z
    Strength   :     0.0043458275
    D(   31) --> V(    3) amplitude =  0.9670
 
 ---------------------------------------------------
 Calculating Relaxed Density
 ---------------------------------------------------
 Iter    Rts Conv    Rts Left    Ttl Dev     Max Dev
 ---------------------------------------------------
   1         0           3      0.001106    0.000561
   2         0           3      0.000465    0.000243
   3         0           3      0.000128    0.000057
   4         0           3      0.000043    0.000024
   5         0           3      0.000011    0.000006
   6         2           1      0.000002    0.000002
   7         3           0      0.000000    0.000000    Roots Converged
 ---------------------------------------------------
  SETman timing summary (seconds)
  CPU time              1327.71s
  System time              0.00s
  Wall time              333.84s
 
 --------------------------------------------------------------
 
                    Orbital Energies (a.u.)
 --------------------------------------------------------------
 
 Alpha MOs
 -- Occupied --
-14.1756 -10.1124 -10.1109 -10.0802 -10.0768 -10.0762 -10.0750 -10.0706
-10.0656  -1.0220  -0.8737  -0.8255  -0.7697  -0.7571  -0.6658  -0.6349
 -0.6201  -0.5785  -0.5268  -0.5091  -0.4735  -0.4693  -0.4678  -0.4487
 -0.4329  -0.3916  -0.3743  -0.3712  -0.3194  -0.2509  -0.2391
 -- Virtual --
  0.0021   0.0412   0.0458   0.0633   0.0691   0.0776   0.0838   0.0854
  0.0999   0.1078   0.1123   0.1126   0.1325   0.1365   0.1487   0.1520
  0.1556   0.1742   0.1814   0.1836   0.1968   0.2052   0.2052   0.2104
  0.2104   0.2195   0.2268   0.2337   0.2348   0.2392   0.2409   0.2471
  0.2597   0.2637   0.2703   0.2789   0.2802   0.2831   0.2953   0.2995
  0.3113   0.3135   0.3192   0.3335   0.3382   0.3462   0.3544   0.3700
  0.3882   0.4030   0.4090   0.4374   0.4589   0.4862   0.5432   0.5923
  0.6304   0.6940   0.7030   0.7234   0.7380   0.7458   0.7474   0.7581
  0.7608   0.7761   0.7763   0.7984   0.8108   0.8162   0.8311   0.8772
  0.9133   0.9277   0.9371   0.9624   0.9665   0.9748   0.9920   1.0061
  1.0171   1.0540   1.0726   1.0886   1.1159   1.1292   1.1297   1.1898
  1.1941   1.2173   1.2386   1.2419   1.2593   1.3243   1.3278   1.3414
  1.3754   1.4076   1.4144   1.4439   1.4578   1.4655   1.4855   1.4883
  1.5418   1.5920   1.6382   1.7740   1.8093   1.8530   1.8701   1.8921
  1.8987   1.9529   1.9571   1.9764   2.0124   2.0190   2.0856   2.0957
  2.1126   2.1550   2.1866   2.1939   2.2195   2.2225   2.2555   2.3109
  2.3584   2.3909   2.4858   2.4908   2.5636   2.5636   2.5914   2.6077
  2.6455   2.7264   2.7484   2.7695   2.8881   2.8934   3.0047   3.1257
  3.2725   4.0856   4.1605   4.2123   4.2441   4.2769   4.3137   4.3864
  4.4253   4.6630
 --------------------------------------------------------------
 
          Ground-State Mulliken Net Atomic Charges

     Atom                 Charge (a.u.)
  ----------------------------------------
      1 C                    -0.032093
      2 C                    -0.378994
      3 C                    -0.116875
      4 C                    -0.580547
      5 C                     0.836118
      6 C                    -0.586701
      7 N                    -0.562012
      8 C                     0.288416
      9 C                    -0.311739
     10 H                     0.400727
     11 H                     0.180908
     12 H                     0.190842
     13 H                     0.167294
     14 H                     0.169256
     15 H                     0.162173
     16 H                     0.173226
  ----------------------------------------
  Sum of atomic charges =     0.000000

 -----------------------------------------------------------------
                    Cartesian Multipole Moments
 -----------------------------------------------------------------
    Charge (ESU x 10^10)
                -0.0000
    Dipole Moment (Debye)
         X      -1.6034      Y       1.5099      Z       0.0008
       Tot       2.2024
    Quadrupole Moments (Debye-Ang)
        XX     -45.3242     XY      -2.9542     YY     -44.4958
        XZ      -0.0019     YZ       0.0024     ZZ     -59.1605
    Octopole Moments (Debye-Ang^2)
       XXX     -16.0872    XXY       8.4492    XYY      -7.9005
       YYY      10.4216    XXZ       0.0022    XYZ      -0.0048
       YYZ       0.0037    XZZ      -2.4680    YZZ       2.0427
       ZZZ      -0.0020
    Hexadecapole Moments (Debye-Ang^3)
      XXXX    -827.0507   XXXY     -22.3219   XXYY    -201.6039
      XYYY     -22.1757   YYYY    -381.1384   XXXZ      -0.0019
      XXYZ       0.0085   XYYZ      -0.0073   YYYZ       0.0077
      XXZZ    -192.5243   XYZZ      -4.7564   YYZZ     -96.2256
      XZZZ       0.0057   YZZZ      -0.0021   ZZZZ     -73.8934
 -----------------------------------------------------------------
 Calculating analytic gradient of the CIS energy
 CIS relaxed dipole moment
            1
    1  -0.7269783
    2   0.4474177
    3   0.0002357
	Magnitude:	 0.854 au	 2.170 Debye
 CIS 1 State Energy is -363.2088880334
 Gradient of the state energy (including CIS Excitation Energy)
            1           2           3           4           5           6
    1   0.0003993  -0.0000936   0.0001446   0.0009296  -0.0002756   0.0007172
    2  -0.0021322   0.0014795   0.0000537  -0.0006837   0.0008956   0.0000777
    3   0.0000000  -0.0000004  -0.0000018   0.0000049   0.0000019  -0.0000000
            7           8           9          10          11          12
    1  -0.0029990  -0.0002842   0.0021383   0.0000763  -0.0000688  -0.0002714
    2  -0.0006022  -0.0013724   0.0023398   0.0000376   0.0000997  -0.0004250
    3  -0.0000139   0.0000013   0.0000026   0.0000068  -0.0000013  -0.0000003
           13          14          15          16
    1  -0.0000419   0.0000437   0.0000160  -0.0004305
    2   0.0001353   0.0000836   0.0001615  -0.0001484
    3   0.0000000   0.0000006  -0.0000002  -0.0000002
 Gradient time:  CPU 78.95 s  wall 19.86 s
 Geometry Optimization Parameters
   NAtoms,    NIC,     NZ,  NCons,   NDum,   NFix, NCnnct, MaxDiis
       16     116       0       0       0       0       0       0

 Cartesian Hessian Update
 Hessian updated using BFGS update


** GEOMETRY OPTIMIZATION IN DELOCALIZED INTERNAL COORDINATES **
   Searching for a Minimum

   Optimization Cycle:   3

                       Coordinates (Angstroms)
     ATOM                X               Y               Z
      1  C         2.1692956534   -0.6895159691   -0.0000225981
      2  C         2.1618492153    0.7386454035    0.0000069240
      3  C         0.9364903462    1.4537178406    0.0000248047
      4  C        -0.2474876955    0.6840773933    0.0000205174
      5  C        -0.2619287132   -0.7732364185   -0.0000111624
      6  C         0.9702625525   -1.4608230431   -0.0000248923
      7  N        -1.5580357074    1.0767708311   -0.0000453550
      8  C        -1.6371345942   -1.1762613818    0.0000258676
      9  C        -2.4146750838   -0.0382937726    0.0000714925
     10  H        -1.8684138384    2.0405653735    0.0005484722
     11  H        -2.0077629398   -2.1934907911   -0.0000321335
     12  H        -3.4881283992    0.0859896776    0.0000288289
     13  H         3.1048318701    1.2766373863    0.0000035553
     14  H         0.9108636897    2.5399107366    0.0000090603
     15  H         3.1258612838   -1.2059167302   -0.0000510729
     16  H         1.0072073118   -2.5462240436   -0.0000263277
   Point Group: c1    Number of degrees of freedom:    42


   Energy is   -363.208888033

 Hessian updated using BFGS update

 39 Hessian modes will be used to form the next step
  Hessian Eigenvalues:
     0.018593    0.019738    0.020011    0.020794    0.021683    0.022200
     0.022636    0.023004    0.023236    0.023608    0.023851    0.023984
     0.024127    0.134585    0.160000    0.160023    0.160090    0.192568
     0.220676    0.229151    0.241470    0.243955    0.355978    0.357158
     0.357714    0.359071    0.361863    0.364679    0.369055    0.378076
     0.401775    0.426409    0.447025    0.463713    0.471763    0.475152
     0.481596    0.498672    0.529154

 Minimum search - taking simple RFO step
 Searching for Lamda that Minimizes Along All modes
 Value Taken    Lamda =  -0.00005739
 Step Taken.  Stepsize is  0.018141

                             Maximum     Tolerance    Cnvgd?
         Gradient           0.001707      0.000300      NO
         Displacement       0.008445      0.001200      NO
         Energy change     -0.000176      0.000001      NO


 New Cartesian Coordinates Obtained by Inverse Iteration

 Displacement from previous Coordinates is:  0.022895
 ----------------------------------------------------------------
             Standard Nuclear Orientation (Angstroms)
    I     Atom           X                Y                Z
 ----------------------------------------------------------------
    1      C       2.1669166991    -0.6864953607    -0.0000314085
    2      C       2.1612417025     0.7386276596     0.0000089932
    3      C       0.9357775643     1.4536349543     0.0000341498
    4      C      -0.2469831583     0.6828215257     0.0000304204
    5      C      -0.2626659392    -0.7752850463    -0.0000174521
    6      C       0.9694543707    -1.4611495398    -0.0000396832
    7      N      -1.5546557755     1.0750789315     0.0000243365
    8      C      -1.6381074050    -1.1758104385     0.0000338156
    9      C      -2.4172594538    -0.0395770978     0.0000763332
   10      H      -1.8639708712     2.0393212616     0.0004655610
   11      H      -2.0077144933    -2.1936360842    -0.0000104361
   12      H      -3.4895309094     0.0905123485     0.0000152299
   13      H       3.1052332566     1.2746636444     0.0000096027
   14      H       0.9089023559     2.5396106200     0.0000258801
   15      H       3.1231998127    -1.2037865145    -0.0000578569
   16      H       1.0132571951    -2.5459783711    -0.0000415045
 ----------------------------------------------------------------
 Molecular Point Group                 C1    NOp =  1
 Largest Abelian Subgroup              C1    NOp =  1
 Nuclear Repulsion Energy =         396.45248154 hartrees
 There are       31 alpha and       31 beta electrons
 Applying Cartesian multipole field
    Component          Value
    ---------          -----
     (2,0,0)        1.00000E-11
     (0,2,0)        2.00000E-11
     (0,0,2)       -3.00000E-11
 Nucleus-field energy     =     0.0000000120 hartrees
 Requested basis set is 6-31+G(d)
 There are 59 shells and 185 basis functions
 A cutoff of  1.0D-12 yielded   1656 shell pairs
 There are     17099 function pairs
 Smallest overlap matrix eigenvalue = 1.46E-06
 Guess MOs from SCF MO coefficient file

 -----------------------------------------------------------------------
  General SCF calculation program by
  Eric Jon Sundstrom, Paul Horn, Yuezhi Mao, Dmitri Zuev, Alec White,
  David Stuck, Shaama M.S., Shane Yost, Joonho Lee, David Small,
  Daniel Levine, Susi Lehtola, Hugh Burton, Evgeny Epifanovsky,
  Bang C. Huynh
 -----------------------------------------------------------------------
 Exchange:     0.4400 Hartree-Fock + 1.0000 MN15
 Correlation:  1.0000 MN15
 Using SG-3 standard quadrature grid
 using 4 threads for integral computing
 -------------------------------------------------------
 OpenMP Integral computing Module                
 Release: version 1.0, May 2013, Q-Chem Inc. Pittsburgh 
 -------------------------------------------------------
 A restricted SCF calculation will be
 performed using DIIS
 SCF converges when DIIS error is below 1.0e-08
 ---------------------------------------
  Cycle       Energy         DIIS error
 ---------------------------------------
    1    -363.3868581352      6.53e-05  
    2    -363.3868858602      1.67e-05  
    3    -363.3868857889      2.02e-05  
    4    -363.3868874486      3.01e-06  
    5    -363.3868874940      1.54e-06  
    6    -363.3868875067      4.15e-07  
    7    -363.3868875081      2.19e-07  
    8    -363.3868875084      6.49e-08  
    9    -363.3868875084      2.06e-08  
   10    -363.3868875084      9.97e-09  Convergence criterion met
 ---------------------------------------
 SCF time:   CPU 197.68s  wall 50.00s 
 SCF   energy in the final basis set =     -363.3868875084
 Total energy in the final basis set =     -363.3868875084
 
 Direct TDDFT/TDA calculation will be performed
 Exchange:     0.4400 Hartree-Fock + 1.0000 MN15
 Correlation:  1.0000 MN15
 Using SG-3 standard quadrature grid
 Singlet excitation energies requested
 CIS energy converged when residual is below 10e- 6
 ---------------------------------------------------
 Iter    Rts Conv    Rts Left    Ttl Dev     Max Dev
 ---------------------------------------------------
   1         0           3      0.004744    0.001966
   2         0           3      0.001477    0.000744
   3         0           3      0.000457    0.000220
   4         0           3      0.000175    0.000090
   5         0           3      0.000124    0.000096
   6         0           3      0.000086    0.000078
   7         1           2      0.000079    0.000077
   8         2           1      0.000788    0.000787
   9         2           1      0.000315    0.000314
  10         2           1      0.000117    0.000116
  11         2           1      0.000041    0.000040
  12         2           1      0.000020    0.000019
  13         2           1      0.000011    0.000011
  14         2           1      0.000006    0.000005
  15         2           1      0.000004    0.000004
  16         2           1      0.000002    0.000002
  17         3           0      0.000001    0.000001    Roots Converged
 ---------------------------------------------------
 
 ---------------------------------------------------
         TDDFT/TDA Excitation Energies              
 ---------------------------------------------------

 Excited state   1: excitation energy (eV) =    4.8427
 Total energy for state  1:                  -363.20891975 au
    Multiplicity: Singlet
    Trans. Mom.: -0.3545 X  -0.4825 Y   0.0000 Z
    Strength   :     0.0425219797
    D(   30) --> V(    1) amplitude =  0.7622
    D(   31) --> V(    1) amplitude = -0.3382
    D(   31) --> V(    2) amplitude = -0.4973

 Excited state   2: excitation energy (eV) =    5.0637
 Total energy for state  2:                  -363.20080093 au
    Multiplicity: Singlet
    Trans. Mom.: -0.7485 X   0.6050 Y   0.0001 Z
    Strength   :     0.1149015214
    D(   30) --> V(    1) amplitude =  0.2671
    D(   30) --> V(    2) amplitude =  0.3009
    D(   31) --> V(    1) amplitude =  0.8431
    D(   31) --> V(    2) amplitude = -0.2724

 Excited state   3: excitation energy (eV) =    5.9291
 Total energy for state  3:                  -363.16899548 au
    Multiplicity: Singlet
    Trans. Mom.:  0.0001 X   0.0000 Y   0.1670 Z
    Strength   :     0.0040531072
    D(   31) --> V(    3) amplitude = -0.9663
 
 ---------------------------------------------------
 Calculating Relaxed Density
 ---------------------------------------------------
 Iter    Rts Conv    Rts Left    Ttl Dev     Max Dev
 ---------------------------------------------------
   1         0           3      0.001106    0.000558
   2         0           3      0.000467    0.000244
   3         0           3      0.000129    0.000059
   4         0           3      0.000043    0.000025
   5         0           3      0.000012    0.000006
   6         2           1      0.000002    0.000002
   7         3           0      0.000000    0.000000    Roots Converged
 ---------------------------------------------------
  SETman timing summary (seconds)
  CPU time              1327.80s
  System time              0.00s
  Wall time              333.85s
 
 --------------------------------------------------------------
 
                    Orbital Energies (a.u.)
 --------------------------------------------------------------
 
 Alpha MOs
 -- Occupied --
-14.1753 -10.1126 -10.1107 -10.0799 -10.0765 -10.0761 -10.0749 -10.0701
-10.0658  -1.0219  -0.8738  -0.8258  -0.7695  -0.7574  -0.6661  -0.6349
 -0.6200  -0.5784  -0.5270  -0.5092  -0.4732  -0.4691  -0.4678  -0.4490
 -0.4333  -0.3913  -0.3743  -0.3711  -0.3197  -0.2506  -0.2393
 -- Virtual --
  0.0018   0.0417   0.0458   0.0633   0.0691   0.0777   0.0838   0.0854
  0.0999   0.1079   0.1123   0.1126   0.1325   0.1365   0.1487   0.1520
  0.1557   0.1742   0.1814   0.1835   0.1968   0.2048   0.2052   0.2105
  0.2105   0.2197   0.2268   0.2339   0.2348   0.2391   0.2409   0.2472
  0.2597   0.2639   0.2703   0.2788   0.2803   0.2831   0.2955   0.2996
  0.3114   0.3135   0.3194   0.3337   0.3386   0.3464   0.3542   0.3700
  0.3882   0.4037   0.4093   0.4378   0.4587   0.4873   0.5433   0.5925
  0.6310   0.6940   0.7026   0.7234   0.7377   0.7458   0.7480   0.7583
  0.7608   0.7760   0.7767   0.7984   0.8110   0.8164   0.8310   0.8773
  0.9134   0.9278   0.9371   0.9626   0.9665   0.9746   0.9920   1.0061
  1.0173   1.0535   1.0729   1.0889   1.1157   1.1295   1.1299   1.1900
  1.1947   1.2179   1.2386   1.2416   1.2595   1.3244   1.3282   1.3415
  1.3761   1.4067   1.4144   1.4437   1.4585   1.4655   1.4862   1.4883
  1.5417   1.5938   1.6374   1.7742   1.8099   1.8533   1.8706   1.8927
  1.9003   1.9530   1.9584   1.9765   2.0119   2.0174   2.0862   2.0966
  2.1115   2.1571   2.1864   2.1940   2.2183   2.2243   2.2564   2.3111
  2.3591   2.3912   2.4869   2.4915   2.5634   2.5648   2.5915   2.6086
  2.6460   2.7269   2.7492   2.7704   2.8885   2.8953   3.0040   3.1273
  3.2740   4.0849   4.1617   4.2122   4.2449   4.2771   4.3140   4.3867
  4.4254   4.6636
 --------------------------------------------------------------
 
          Ground-State Mulliken Net Atomic Charges

     Atom                 Charge (a.u.)
  ----------------------------------------
      1 C                    -0.029958
      2 C                    -0.377145
      3 C                    -0.120939
      4 C                    -0.579254
      5 C                     0.842306
      6 C                    -0.593551
      7 N                    -0.563718
      8 C                     0.286342
      9 C                    -0.308256
     10 H                     0.400392
     11 H                     0.180911
     12 H                     0.191232
     13 H                     0.167392
     14 H                     0.169220
     15 H                     0.161632
     16 H                     0.173394
  ----------------------------------------
  Sum of atomic charges =     0.000000

 -----------------------------------------------------------------
                    Cartesian Multipole Moments
 -----------------------------------------------------------------
    Charge (ESU x 10^10)
                -0.0000
    Dipole Moment (Debye)
         X      -1.6056      Y       1.5043      Z       0.0006
       Tot       2.2002
    Quadrupole Moments (Debye-Ang)
        XX     -45.3150     XY      -2.9468     YY     -44.5127
        XZ      -0.0013     YZ       0.0019     ZZ     -59.1486
    Octopole Moments (Debye-Ang^2)
       XXX     -16.1413    XXY       8.4770    XYY      -7.8155
       YYY      10.3981    XXZ       0.0009    XYZ      -0.0036
       YYZ       0.0025    XZZ      -2.4262    YZZ       2.0519
       ZZZ      -0.0031
    Hexadecapole Moments (Debye-Ang^3)
      XXXX    -826.3539   XXXY     -22.4612   XXYY    -201.6402
      XYYY     -22.4187   YYYY    -380.9938   XXXZ       0.0031
      XXYZ       0.0060   XYYZ      -0.0048   YYYZ       0.0040
      XXZZ    -192.4177   XYZZ      -4.8216   YYZZ     -96.1552
      XZZZ       0.0083   YZZZ      -0.0044   ZZZZ     -73.8543
 -----------------------------------------------------------------
 Calculating analytic gradient of the CIS energy
 CIS relaxed dipole moment
            1
    1  -0.7261071
    2   0.4434255
    3   0.0001742
	Magnitude:	 0.851 au	 2.163 Debye
 CIS 1 State Energy is -363.2089197508
 Gradient of the state energy (including CIS Excitation Energy)
            1           2           3           4           5           6
    1   0.0000564  -0.0002696  -0.0000302   0.0000124  -0.0003217  -0.0000522
    2  -0.0004193   0.0003420   0.0001089   0.0005224  -0.0005394  -0.0001639
    3  -0.0000000  -0.0000001  -0.0000013   0.0000031  -0.0000009  -0.0000003
            7           8           9          10          11          12
    1  -0.0002888   0.0006358   0.0002318   0.0000383  -0.0000390  -0.0000112
    2  -0.0004482   0.0000203   0.0006845  -0.0000302   0.0000087  -0.0001388
    3  -0.0000076   0.0000031   0.0000002   0.0000052  -0.0000003  -0.0000013
           13          14          15          16
    1   0.0000013   0.0000582   0.0000093  -0.0000306
    2  -0.0000472  -0.0000598   0.0000980   0.0000620
    3   0.0000001   0.0000002  -0.0000001   0.0000001
 Gradient time:  CPU 78.94 s  wall 19.85 s
 Geometry Optimization Parameters
   NAtoms,    NIC,     NZ,  NCons,   NDum,   NFix, NCnnct, MaxDiis
       16     116       0       0       0       0       0       0

 Cartesian Hessian Update
 Hessian updated using BFGS update


** GEOMETRY OPTIMIZATION IN DELOCALIZED INTERNAL COORDINATES **
   Searching for a Minimum

   Optimization Cycle:   4

                       Coordinates (Angstroms)
     ATOM                X               Y               Z
      1  C         2.1669166991   -0.6864953607   -0.0000314085
      2  C         2.1612417025    0.7386276596    0.0000089932
      3  C         0.9357775643    1.4536349543    0.0000341498
      4  C        -0.2469831583    0.6828215257    0.0000304204
      5  C        -0.2626659392   -0.7752850463   -0.0000174521
      6  C         0.9694543707   -1.4611495398   -0.0000396832
      7  N        -1.5546557755    1.0750789315    0.0000243365
      8  C        -1.6381074050   -1.1758104385    0.0000338156
      9  C        -2.4172594538   -0.0395770978    0.0000763332
     10  H        -1.8639708712    2.0393212616    0.0004655610
     11  H        -2.0077144933   -2.1936360842   -0.0000104361
     12  H        -3.4895309094    0.0905123485    0.0000152299
     13  H         3.1052332566    1.2746636444    0.0000096027
     14  H         0.9089023559    2.5396106200    0.0000258801
     15  H         3.1231998127   -1.2037865145   -0.0000578569
     16  H         1.0132571951   -2.5459783711   -0.0000415045
   Point Group: c1    Number of degrees of freedom:    42


   Energy is   -363.208919751

 Hessian updated using BFGS update

 39 Hessian modes will be used to form the next step
  Hessian Eigenvalues:
     0.018592    0.019738    0.020011    0.020794    0.021683    0.022200
     0.022636    0.023004    0.023608    0.023851    0.023984    0.024127
     0.120006    0.160000    0.160016    0.160051    0.161025    0.195034
     0.221687    0.229674    0.241013    0.243140    0.354913    0.357176
     0.357645    0.359128    0.360446    0.364643    0.369703    0.373411
     0.394101    0.426476    0.447321    0.463727    0.471842    0.475865
     0.478294    0.497625    0.544749

 Minimum search - taking simple RFO step
 Searching for Lamda that Minimizes Along All modes
 Value Taken    Lamda =  -0.00000383
 Step Taken.  Stepsize is  0.004236

                             Maximum     Tolerance    Cnvgd?
         Gradient           0.000409      0.000300      NO
         Displacement       0.001481      0.001200      NO
         Energy change     -0.000032      0.000001      NO


 New Cartesian Coordinates Obtained by Inverse Iteration

 Displacement from previous Coordinates is:  0.005778
 ----------------------------------------------------------------
             Standard Nuclear Orientation (Angstroms)
    I     Atom           X                Y                Z
 ----------------------------------------------------------------
    1      C       2.1670000229    -0.6857675088    -0.0000278471
    2      C       2.1618917785     0.7386712488     0.0000147484
    3      C       0.9359032298     1.4531009836     0.0000379097
    4      C      -0.2468656031     0.6821830180     0.0000307886
    5      C      -0.2628926689    -0.7753906342    -0.0000190393
    6      C       0.9695562048    -1.4606023749    -0.0000419228
    7      N      -1.5541909558     1.0747985614     0.0000447150
    8      C      -1.6389668823    -1.1760602417     0.0000169170
    9      C      -2.4180008035    -0.0400141394     0.0001040234
   10      H      -1.8633299153     2.0391654312     0.0003894187
   11      H      -2.0081732943    -2.1940339597    -0.0000337913
   12      H      -3.4900173245     0.0918044007     0.0000651370
   13      H       3.1057445564     1.2749594955     0.0000173345
   14      H       0.9081868076     2.5391258784     0.0000323675
   15      H       3.1228806351    -1.2039383344    -0.0000530158
   16      H       1.0143691638    -2.5454493319    -0.0000517624
 ----------------------------------------------------------------
 Molecular Point Group                 C1    NOp =  1
 Largest Abelian Subgroup              C1    NOp =  1
 Nuclear Repulsion Energy =         396.44762500 hartrees
 There are       31 alpha and       31 beta electrons
 Applying Cartesian multipole field
    Component          Value
    ---------          -----
     (2,0,0)        1.00000E-11
     (0,2,0)        2.00000E-11
     (0,0,2)       -3.00000E-11
 Nucleus-field energy     =     0.0000000120 hartrees
 Requested basis set is 6-31+G(d)
 There are 59 shells and 185 basis functions
 A cutoff of  1.0D-12 yielded   1656 shell pairs
 There are     17099 function pairs
 Smallest overlap matrix eigenvalue = 1.45E-06
 Guess MOs from SCF MO coefficient file

 -----------------------------------------------------------------------
  General SCF calculation program by
  Eric Jon Sundstrom, Paul Horn, Yuezhi Mao, Dmitri Zuev, Alec White,
  David Stuck, Shaama M.S., Shane Yost, Joonho Lee, David Small,
  Daniel Levine, Susi Lehtola, Hugh Burton, Evgeny Epifanovsky,
  Bang C. Huynh
 -----------------------------------------------------------------------
 Exchange:     0.4400 Hartree-Fock + 1.0000 MN15
 Correlation:  1.0000 MN15
 Using SG-3 standard quadrature grid
 using 4 threads for integral computing
 -------------------------------------------------------
 OpenMP Integral computing Module                
 Release: version 1.0, May 2013, Q-Chem Inc. Pittsburgh 
 -------------------------------------------------------
 A restricted SCF calculation will be
 performed using DIIS
 SCF converges when DIIS error is below 1.0e-08
 ---------------------------------------
  Cycle       Energy         DIIS error
 ---------------------------------------
    1    -363.3868684243      1.73e-05  
    2    -363.3868701809      3.61e-06  
    3    -363.3868702063      3.66e-06  
    4    -363.3868702595      6.16e-07  
    5    -363.3868702613      4.28e-07  
    6    -363.3868702623      8.97e-08  
    7    -363.3868702624      3.85e-08  
    8    -363.3868702624      1.85e-08  
    9    -363.3868702624      6.60e-09  Convergence criterion met
 ---------------------------------------
 SCF time:   CPU 177.19s  wall 44.00s 
 SCF   energy in the final basis set =     -363.3868702624
 Total energy in the final basis set =     -363.3868702624
 
 Direct TDDFT/TDA calculation will be performed
 Exchange:     0.4400 Hartree-Fock + 1.0000 MN15
 Correlation:  1.0000 MN15
 Using SG-3 standard quadrature grid
 Singlet excitation energies requested
 CIS energy converged when residual is below 10e- 6
 ---------------------------------------------------
 Iter    Rts Conv    Rts Left    Ttl Dev     Max Dev
 ---------------------------------------------------
   1         0           3      0.004748    0.001965
   2         0           3      0.001477    0.000745
   3         0           3      0.000458    0.000221
   4         0           3      0.000175    0.000090
   5         0           3      0.000124    0.000097
   6         0           3      0.000085    0.000077
   7         1           2      0.000065    0.000063
   8         2           1      0.000528    0.000527
   9         2           1      0.000397    0.000397
  10         2           1      0.000152    0.000151
  11         2           1      0.000052    0.000051
  12         2           1      0.000023    0.000023
  13         2           1      0.000013    0.000012
  14         2           1      0.000006    0.000006
  15         2           1      0.000005    0.000004
  16         2           1      0.000003    0.000002
  17         3           0      0.000001    0.000001    Roots Converged
 ---------------------------------------------------
 
 ---------------------------------------------------
         TDDFT/TDA Excitation Energies              
 ---------------------------------------------------

 Excited state   1: excitation energy (eV) =    4.8422
 Total energy for state  1:                  -363.20892247 au
    Multiplicity: Singlet
    Trans. Mom.: -0.3513 X  -0.4899 Y   0.0000 Z
    Strength   :     0.0431123620
    D(   30) --> V(    1) amplitude =  0.7571
    D(   31) --> V(    1) amplitude = -0.3529
    D(   31) --> V(    2) amplitude =  0.4927

 Excited state   2: excitation energy (eV) =    5.0653
 Total energy for state  2:                  -363.20072305 au
    Multiplicity: Singlet
    Trans. Mom.: -0.7480 X   0.6021 Y   0.0001 Z
    Strength   :     0.1144183097
    D(   30) --> V(    1) amplitude =  0.2812
    D(   30) --> V(    2) amplitude = -0.2971
    D(   31) --> V(    1) amplitude =  0.8374
    D(   31) --> V(    2) amplitude =  0.2800

 Excited state   3: excitation energy (eV) =    5.9301
 Total energy for state  3:                  -363.16894181 au
    Multiplicity: Singlet
    Trans. Mom.: -0.0001 X  -0.0001 Y  -0.1649 Z
    Strength   :     0.0039487716
    D(   31) --> V(    3) amplitude =  0.9661
 
 ---------------------------------------------------
 Calculating Relaxed Density
 ---------------------------------------------------
 Iter    Rts Conv    Rts Left    Ttl Dev     Max Dev
 ---------------------------------------------------
   1         0           3      0.001105    0.000557
   2         0           3      0.000467    0.000244
   3         0           3      0.000130    0.000059
   4         0           3      0.000043    0.000025
   5         0           3      0.000012    0.000007
   6         2           1      0.000002    0.000002
   7         3           0      0.000000    0.000000    Roots Converged
 ---------------------------------------------------
  SETman timing summary (seconds)
  CPU time              1326.14s
  System time              0.00s
  Wall time              333.49s
 
 --------------------------------------------------------------
 
                    Orbital Energies (a.u.)
 --------------------------------------------------------------
 
 Alpha MOs
 -- Occupied --
-14.1752 -10.1127 -10.1107 -10.0799 -10.0765 -10.0761 -10.0749 -10.0700
-10.0659  -1.0218  -0.8738  -0.8258  -0.7694  -0.7575  -0.6661  -0.6348
 -0.6200  -0.5784  -0.5269  -0.5093  -0.4730  -0.4690  -0.4678  -0.4491
 -0.4334  -0.3912  -0.3744  -0.3711  -0.3196  -0.2507  -0.2393
 -- Virtual --
  0.0017   0.0417   0.0458   0.0633   0.0691   0.0776   0.0838   0.0854
  0.0999   0.1079   0.1123   0.1126   0.1325   0.1365   0.1487   0.1520
  0.1557   0.1743   0.1814   0.1835   0.1968   0.2047   0.2052   0.2105
  0.2105   0.2197   0.2269   0.2339   0.2348   0.2391   0.2409   0.2472
  0.2597   0.2639   0.2702   0.2788   0.2803   0.2831   0.2955   0.2996
  0.3114   0.3135   0.3194   0.3337   0.3386   0.3464   0.3542   0.3700
  0.3882   0.4038   0.4093   0.4379   0.4585   0.4874   0.5432   0.5927
  0.6312   0.6939   0.7025   0.7234   0.7377   0.7458   0.7478   0.7582
  0.7608   0.7760   0.7768   0.7984   0.8110   0.8164   0.8309   0.8773
  0.9134   0.9279   0.9371   0.9626   0.9665   0.9745   0.9920   1.0062
  1.0173   1.0533   1.0729   1.0890   1.1157   1.1295   1.1299   1.1900
  1.1948   1.2180   1.2386   1.2416   1.2595   1.3243   1.3283   1.3415
  1.3762   1.4066   1.4146   1.4438   1.4585   1.4654   1.4863   1.4884
  1.5415   1.5941   1.6372   1.7743   1.8100   1.8527   1.8707   1.8931
  1.9006   1.9526   1.9584   1.9763   2.0117   2.0173   2.0858   2.0966
  2.1115   2.1573   2.1864   2.1941   2.2181   2.2244   2.2564   2.3110
  2.3588   2.3909   2.4870   2.4914   2.5634   2.5651   2.5916   2.6087
  2.6461   2.7268   2.7494   2.7706   2.8886   2.8951   3.0035   3.1274
  3.2742   4.0847   4.1619   4.2120   4.2452   4.2771   4.3139   4.3867
  4.4254   4.6637
 --------------------------------------------------------------
 
          Ground-State Mulliken Net Atomic Charges

     Atom                 Charge (a.u.)
  ----------------------------------------
      1 C                    -0.028499
      2 C                    -0.377671
      3 C                    -0.120341
      4 C                    -0.581847
      5 C                     0.845856
      6 C                    -0.596014
      7 N                    -0.564110
      8 C                     0.286056
      9 C                    -0.307558
     10 H                     0.400315
     11 H                     0.180973
     12 H                     0.191282
     13 H                     0.167494
     14 H                     0.169134
     15 H                     0.161566
     16 H                     0.173365
  ----------------------------------------
  Sum of atomic charges =     0.000000

 -----------------------------------------------------------------
                    Cartesian Multipole Moments
 -----------------------------------------------------------------
    Charge (ESU x 10^10)
                -0.0000
    Dipole Moment (Debye)
         X      -1.6050      Y       1.5020      Z       0.0005
       Tot       2.1982
    Quadrupole Moments (Debye-Ang)
        XX     -45.3088     XY      -2.9426     YY     -44.5189
        XZ      -0.0011     YZ       0.0016     ZZ     -59.1481
    Octopole Moments (Debye-Ang^2)
       XXX     -16.1478    XXY       8.4865    XYY      -7.8058
       YYY      10.3900    XXZ       0.0007    XYZ      -0.0030
       YYZ       0.0015    XZZ      -2.4190    YZZ       2.0540
       ZZZ      -0.0037
    Hexadecapole Moments (Debye-Ang^3)
      XXXX    -826.5221   XXXY     -22.5190   XXYY    -201.6601
      XYYY     -22.4829   YYYY    -380.9040   XXXZ       0.0032
      XXYZ       0.0047   XYYZ      -0.0029   YYYZ       0.0022
      XXZZ    -192.4631   XYZZ      -4.8466   YYZZ     -96.1298
      XZZZ       0.0091   YZZZ      -0.0054   ZZZZ     -73.8496
 -----------------------------------------------------------------
 Calculating analytic gradient of the CIS energy
 CIS relaxed dipole moment
            1
    1  -0.7273618
    2   0.4417497
    3   0.0001304
	Magnitude:	 0.851 au	 2.163 Debye
 CIS 1 State Energy is -363.2089224715
 Gradient of the state energy (including CIS Excitation Energy)
            1           2           3           4           5           6
    1  -0.0000139  -0.0002022   0.0000699  -0.0000895  -0.0001312  -0.0000274
    2  -0.0001183   0.0001211   0.0000229   0.0003473  -0.0003765  -0.0000410
    3   0.0000000   0.0000001  -0.0000008   0.0000022   0.0000009  -0.0000003
            7           8           9          10          11          12
    1   0.0000258   0.0003061  -0.0000116   0.0000113  -0.0000212   0.0000133
    2  -0.0001546   0.0000579   0.0001745  -0.0000068  -0.0000008  -0.0000420
    3  -0.0000073  -0.0000005   0.0000037   0.0000035  -0.0000005  -0.0000009
           13          14          15          16
    1   0.0000150   0.0000261   0.0000124   0.0000171
    2  -0.0000345  -0.0000261   0.0000474   0.0000294
    3  -0.0000000  -0.0000001  -0.0000001   0.0000001
 Gradient time:  CPU 79.04 s  wall 19.88 s
 Geometry Optimization Parameters
   NAtoms,    NIC,     NZ,  NCons,   NDum,   NFix, NCnnct, MaxDiis
       16     116       0       0       0       0       0       0

 Cartesian Hessian Update
 Hessian updated using BFGS update


** GEOMETRY OPTIMIZATION IN DELOCALIZED INTERNAL COORDINATES **
   Searching for a Minimum

   Optimization Cycle:   5

                       Coordinates (Angstroms)
     ATOM                X               Y               Z
      1  C         2.1670000229   -0.6857675088   -0.0000278471
      2  C         2.1618917785    0.7386712488    0.0000147484
      3  C         0.9359032298    1.4531009836    0.0000379097
      4  C        -0.2468656031    0.6821830180    0.0000307886
      5  C        -0.2628926689   -0.7753906342   -0.0000190393
      6  C         0.9695562048   -1.4606023749   -0.0000419228
      7  N        -1.5541909558    1.0747985614    0.0000447150
      8  C        -1.6389668823   -1.1760602417    0.0000169170
      9  C        -2.4180008035   -0.0400141394    0.0001040234
     10  H        -1.8633299153    2.0391654312    0.0003894187
     11  H        -2.0081732943   -2.1940339597   -0.0000337913
     12  H        -3.4900173245    0.0918044007    0.0000651370
     13  H         3.1057445564    1.2749594955    0.0000173345
     14  H         0.9081868076    2.5391258784    0.0000323675
     15  H         3.1228806351   -1.2039383344   -0.0000530158
     16  H         1.0143691638   -2.5454493319   -0.0000517624
   Point Group: c1    Number of degrees of freedom:    42


   Energy is   -363.208922472

 Hessian updated using BFGS update

 40 Hessian modes will be used to form the next step
  Hessian Eigenvalues:
     0.018582    0.019737    0.020011    0.020794    0.021685    0.022200
     0.023004    0.023236    0.023608    0.023851    0.023984    0.024127
     0.107785    0.156375    0.160000    0.160012    0.160033    0.160217
     0.196013    0.209389    0.224310    0.237563    0.243453    0.314346
     0.356974    0.357205    0.357922    0.359128    0.363484    0.364768
     0.381575    0.388027    0.426308    0.435785    0.457061    0.471841
     0.472801    0.486456    0.489821    0.529264

 Minimum search - taking simple RFO step
 Searching for Lamda that Minimizes Along All modes
 Value Taken    Lamda =  -0.00000117
 Step Taken.  Stepsize is  0.002679

                             Maximum     Tolerance    Cnvgd?
         Gradient           0.000204      0.000300     YES
         Displacement       0.001015      0.001200     YES
         Energy change     -0.000003      0.000001      NO

 Final energy is   -363.208922471504     


 ******************************
 **  OPTIMIZATION CONVERGED  **
 ******************************

                       Coordinates (Angstroms)
     ATOM                X               Y               Z
      1  C         2.1670000229   -0.6857675088   -0.0000278471
      2  C         2.1618917785    0.7386712488    0.0000147484
      3  C         0.9359032298    1.4531009836    0.0000379097
      4  C        -0.2468656031    0.6821830180    0.0000307886
      5  C        -0.2628926689   -0.7753906342   -0.0000190393
      6  C         0.9695562048   -1.4606023749   -0.0000419228
      7  N        -1.5541909558    1.0747985614    0.0000447150
      8  C        -1.6389668823   -1.1760602417    0.0000169170
      9  C        -2.4180008035   -0.0400141394    0.0001040234
     10  H        -1.8633299153    2.0391654312    0.0003894187
     11  H        -2.0081732943   -2.1940339597   -0.0000337913
     12  H        -3.4900173245    0.0918044007    0.0000651370
     13  H         3.1057445564    1.2749594955    0.0000173345
     14  H         0.9081868076    2.5391258784    0.0000323675
     15  H         3.1228806351   -1.2039383344   -0.0000530158
     16  H         1.0143691638   -2.5454493319   -0.0000517624

Z-matrix Print:
$molecule
0 1
C 
N  1 1.365008
H  2 1.012705 1 124.489899
C  2 1.410310 1 111.054178 3 -179.974383 0
H  4 1.080091 2 120.760144 1 -179.996467 0
C  4 1.377496 2 107.789726 1 -0.004879 0
H  6 1.082859 4 125.624873 2 -179.995602 0
C  1 1.411827 2 130.188010 3 -0.022388 0
H  8 1.086379 1 121.634016 2 -0.001531 0
C  8 1.418964 1 116.673090 2 -180.000000 0
H  10 1.085570 8 120.164203 1 180.000000 0
C  10 1.424448 8 120.436437 1 0.000000 0
H  12 1.087294 10 118.667033 8 180.000000 0
C  12 1.426268 10 122.700389 8 -0.000000 0
H  14 1.085772 12 120.540425 10 -179.998596 0
C  14 1.410122 12 118.021141 10 0.000000 0
$end

 
 --------------------------------------------------------------
 
                    Orbital Energies (a.u.)
 --------------------------------------------------------------
 
 Alpha MOs
 -- Occupied --
-14.1752 -10.1127 -10.1107 -10.0799 -10.0765 -10.0761 -10.0749 -10.0700
-10.0659  -1.0218  -0.8738  -0.8258  -0.7694  -0.7575  -0.6661  -0.6348
 -0.6200  -0.5784  -0.5269  -0.5093  -0.4730  -0.4690  -0.4678  -0.4491
 -0.4334  -0.3912  -0.3744  -0.3711  -0.3196  -0.2507  -0.2393
 -- Virtual --
  0.0017   0.0417   0.0458   0.0633   0.0691   0.0776   0.0838   0.0854
  0.0999   0.1079   0.1123   0.1126   0.1325   0.1365   0.1487   0.1520
  0.1557   0.1743   0.1814   0.1835   0.1968   0.2047   0.2052   0.2105
  0.2105   0.2197   0.2269   0.2339   0.2348   0.2391   0.2409   0.2472
  0.2597   0.2639   0.2702   0.2788   0.2803   0.2831   0.2955   0.2996
  0.3114   0.3135   0.3194   0.3337   0.3386   0.3464   0.3542   0.3700
  0.3882   0.4038   0.4093   0.4379   0.4585   0.4874   0.5432   0.5927
  0.6312   0.6939   0.7025   0.7234   0.7377   0.7458   0.7478   0.7582
  0.7608   0.7760   0.7768   0.7984   0.8110   0.8164   0.8309   0.8773
  0.9134   0.9279   0.9371   0.9626   0.9665   0.9745   0.9920   1.0062
  1.0173   1.0533   1.0729   1.0890   1.1157   1.1295   1.1299   1.1900
  1.1948   1.2180   1.2386   1.2416   1.2595   1.3243   1.3283   1.3415
  1.3762   1.4066   1.4146   1.4438   1.4585   1.4654   1.4863   1.4884
  1.5415   1.5941   1.6372   1.7743   1.8100   1.8527   1.8707   1.8931
  1.9006   1.9526   1.9584   1.9763   2.0117   2.0173   2.0858   2.0966
  2.1115   2.1573   2.1864   2.1941   2.2181   2.2244   2.2564   2.3110
  2.3588   2.3909   2.4870   2.4914   2.5634   2.5651   2.5916   2.6087
  2.6461   2.7268   2.7494   2.7706   2.8886   2.8951   3.0035   3.1274
  3.2742   4.0847   4.1619   4.2120   4.2452   4.2771   4.3139   4.3867
  4.4254   4.6637
 --------------------------------------------------------------
 
          Ground-State Mulliken Net Atomic Charges

     Atom                 Charge (a.u.)
  ----------------------------------------
      1 C                    -0.028499
      2 C                    -0.377671
      3 C                    -0.120341
      4 C                    -0.581847
      5 C                     0.845856
      6 C                    -0.596014
      7 N                    -0.564110
      8 C                     0.286056
      9 C                    -0.307558
     10 H                     0.400315
     11 H                     0.180973
     12 H                     0.191282
     13 H                     0.167494
     14 H                     0.169134
     15 H                     0.161566
     16 H                     0.173365
  ----------------------------------------
  Sum of atomic charges =     0.000000

 -----------------------------------------------------------------
                    Cartesian Multipole Moments
 -----------------------------------------------------------------
    Charge (ESU x 10^10)
                -0.0000
    Dipole Moment (Debye)
         X      -1.6050      Y       1.5020      Z       0.0005
       Tot       2.1982
    Quadrupole Moments (Debye-Ang)
        XX     -45.3088     XY      -2.9426     YY     -44.5189
        XZ      -0.0011     YZ       0.0016     ZZ     -59.1481
    Octopole Moments (Debye-Ang^2)
       XXX     -16.1478    XXY       8.4865    XYY      -7.8058
       YYY      10.3900    XXZ       0.0007    XYZ      -0.0030
       YYZ       0.0015    XZZ      -2.4190    YZZ       2.0540
       ZZZ      -0.0037
    Hexadecapole Moments (Debye-Ang^3)
      XXXX    -826.5221   XXXY     -22.5190   XXYY    -201.6601
      XYYY     -22.4829   YYYY    -380.9040   XXXZ       0.0032
      XXYZ       0.0047   XYYZ      -0.0029   YYYZ       0.0022
      XXZZ    -192.4631   XYZZ      -4.8466   YYZZ     -96.1298
      XZZZ       0.0091   YZZZ      -0.0054   ZZZZ     -73.8496
 -----------------------------------------------------------------
Archival summary:
1\1\exp-1-44\OPT\ProcedureUnspecified\6-31+G*\187\scaparas\WedJun2314:14:522021WedJun2314:14:522021\0\\#,OPT,ProcedureUnspecified,6-31+G*,\\0,1\C\N,1,1.36501\H,2,1.0127,1,124.49\C,2,1.41031,1,111.054,3,-179.974,0\H,4,1.08009,2,120.76,1,-179.996,0\C,4,1.3775,2,107.79,1,-0.00487934,0\H,6,1.08286,4,125.625,2,-179.996,0\C,1,1.41183,2,130.188,3,-0.0223877,0\H,8,1.08638,1,121.634,2,-0.00153065,0\C,8,1.41896,1,116.673,2,-180,0\H,10,1.08557,8,120.164,1,180,0\C,10,1.42445,8,120.436,1,0,0\H,12,1.08729,10,118.667,8,180,0\C,12,1.42627,10,122.7,8,-0,0\H,14,1.08577,12,120.54,10,-179.999,0\C,14,1.41012,12,118.021,10,0,0\\\@

 Total job time:  1989.06s(wall), 7907.98s(cpu) 
 Wed Jun 23 14:14:52 2021

        *************************************************************
        *                                                           *
        *  Thank you very much for using Q-Chem.  Have a nice day.  *
        *                                                           *
        *************************************************************


