
Running Job 1 of 1 QfuncsMPW1PW91-VI-2nd.in
qchem QfuncsMPW1PW91-VI-2nd.in_96239.0 /scratch/scaparas/job_3585319/qchem96239/ 0
/cm/shared/apps/spack/cpu/opt/spack/linux-centos8-zen2/gcc-10.2.0/qchem-5.3-5qddma6gy34jvefiv7mbcb7qm253n45r/exe/qcprog.exe_s QfuncsMPW1PW91-VI-2nd.in_96239.0 /scratch/scaparas/job_3585319/qchem96239/
                  Welcome to Q-Chem
     A Quantum Leap Into The Future Of Chemistry


 Q-Chem 5.3, Q-Chem, Inc., Pleasanton, CA (2020)

 License issued to: University of California, San Diego (site)

 Yihan Shao,  Zhengting Gan,  E. Epifanovsky,  A. T. B. Gilbert,  M. Wormit,  
 J. Kussmann,  A. W. Lange,  A. Behn,  Jia Deng,  Xintian Feng,  D. Ghosh,  
 M. Goldey,  P. R. Horn,  L. D. Jacobson,  I. Kaliman,  T. Kus,  A. Landau,  
 Jie Liu,  E. I. Proynov,  R. M. Richard,  R. P. Steele,  E. J. Sundstrom,  
 H. L. Woodcock III,  P. M. Zimmerman,  D. Zuev,  B. Alam,  B. Albrecht,  
 A. Aldossary,  E. Alguire,  S. A. Baeppler,  D. Barton,  Z. Benda,  
 Y. A. Bernard,  E. J. Berquist,  K. B. Bravaya,  H. Burton,  K. Carter-Fenk,  
 D. Casanova,  Chun-Min Chang,  Yunqing Chen,  A. Chien,  K. D. Closser,  
 M. P. Coons,  S. Coriani,  S. Dasgupta,  A. L. Dempwolff,  M. Diedenhofen,  
 Hainam Do,  R. G. Edgar,  Po-Tung Fang,  S. Faraji,  S. Fatehi,  
 Qingguo Feng,  J. Fosso-Tande,  J. Gayvert,  Qinghui Ge,  A. Ghysels,  
 G. Gidofalvi,  J. Gomes,  J. Gonthier,  S. Gulania,  A. Gunina,  D. Hait,  
 M. W. D. Hanson-Heine,  S. Hammes-Schiffer,  P. H. P. Harbach,  
 A. W. Hauser,  M. F. Herbst,  J. E. Herr,  E. G. Hohenstein,  Z. C. Holden,  
 S. Houck,  Kerwin Hui,  B. C. Huynh,  M. Ivanov,  T.-C. Jagau,  Hyunjun Ji,  
 B. Kaduk,  K. Khistyaev,  Jaehoon Kim,  P. Klunzinger,  K. Koh,  
 D. Kosenkov,  L. Koulias,  T. Kowalczyk,  C. M. Krauter,  A. Kunitsa,  
 Ka Un Lao,  A. Laurent,  K. V. Lawler,  Joonho Lee,  D. Lefrancois,  
 S. Lehtola,  D. S. Levine,  Yi-Pei Li,  You-Sheng Lin,  Fenglai Liu,  
 Kuan-Yu Liu,  E. Livshits,  M. Loipersberger,  A. Luenser,  P. Manohar,  
 E. Mansoor,  S. F. Manzer,  Shan-Ping Mao,  Yuezhi Mao,  N. Mardirossian,  
 A. V. Marenich,  T. Markovich,  L. A. Martinez-Martinez,  S. A. Maurer,  
 N. J. Mayhall,  S. C. McKenzie,  J.-M. Mewes,  P. Morgante,  A. F. Morrison,  
 J. W. Mullinax,  K. Nanda,  T. S. Nguyen-Beck,  R. Olivares-Amaya,  
 K. J. Oosterbaan,  J. A. Parkhill,  S. K. Paul,  F. Pavosevic,  Zheng Pei,  
 T. M. Perrine,  F. Plasser,  P. Pokhilko,  S. Prager,  A. Prociuk,  
 E. Ramos,  B. Rana,  D. R. Rehn,  F. Rob,  E. Rossomme,  M. Scheurer,  
 M. Schneider,  N. Sergueev,  S. M. Sharada,  S. Sharma,  W. Skomorowski,  
 D. W. Small,  T. Stauch,  C. J. Stein,  T. Stein,  Yu-Chuan Su,  
 S. P. Veccham,  Zhen Tao,  A. J. W. Thom,  A. Tkatchenko,  T. Tsuchimochi,  
 N. M. Tubman,  L. Vogt,  M. L. Vidal,  O. Vydrov,  M. A. Watson,  J. Wenzel,  
 M. de Wergifosse,  T. A. Wesolowski,  A. White,  J. Witte,  A. Yamada,  
 Jun Yang,  K. Yao,  S. Yeganeh,  S. R. Yost,  Zhi-Qiang You,  A. Zech,  
 Igor Ying Zhang,  Xing Zhang,  Yan Zhao,  Ying Zhu,  B. R. Brooks,  
 G. K. L. Chan,  C. J. Cramer,  M. S. Gordon,  W. J. Hehre,  A. Klamt,  
 M. W. Schmidt,  C. D. Sherrill,  D. G. Truhlar,  A. Aspuru-Guzik,  R. Baer,  
 A. T. Bell,  N. A. Besley,  Jeng-Da Chai,  A. E. DePrince, III,  
 R. A. DiStasio Jr.,  A. Dreuw,  B. D. Dunietz,  T. R. Furlani,  
 Chao-Ping Hsu,  Yousung Jung,  Jing Kong,  D. S. Lambrecht,  WanZhen Liang,  
 C. Ochsenfeld,  V. A. Rassolov,  L. V. Slipchenko,  J. E. Subotnik,  
 T. Van Voorhis,  J. M. Herbert,  A. I. Krylov,  P. M. W. Gill,  M. Head-Gordon

 Contributors to earlier versions of Q-Chem not listed above: 
 R. D. Adamson,  B. Austin,  J. Baker,  G. J. O. Beran,  K. Brandhorst,  
 S. T. Brown,  E. F. C. Byrd,  A. K. Chakraborty,  C.-L. Cheng,  
 Siu Hung Chien,  D. M. Chipman,  D. L. Crittenden,  H. Dachsel,  
 R. J. Doerksen,  A. D. Dutoi,  L. Fusti-Molnar,  W. A. Goddard III,  
 A. Golubeva-Zadorozhnaya,  S. R. Gwaltney,  G. Hawkins,  A. Heyden,  
 S. Hirata,  G. Kedziora,  F. J. Keil,  C. Kelley,  Jihan Kim,  R. A. King,  
 R. Z. Khaliullin,  P. P. Korambath,  W. Kurlancheek,  A. M. Lee,  M. S. Lee,  
 S. V. Levchenko,  Ching Yeh Lin,  D. Liotard,  R. C. Lochan,  I. Lotan,  
 P. E. Maslen,  N. Nair,  D. P. O'Neill,  D. Neuhauser,  E. Neuscamman,  
 C. M. Oana,  R. Olson,  B. Peters,  R. Peverati,  P. A. Pieniazek,  
 Y. M. Rhee,  J. Ritchie,  M. A. Rohrdanz,  E. Rosta,  N. J. Russ,  
 H. F. Schaefer III,  N. E. Schultz,  N. Shenvi,  A. C. Simmonett,  A. Sodt,  
 D. Stuck,  K. S. Thanthiriwatte,  V. Vanovschi,  Tao Wang,  A. Warshel,  
 C. F. Williams,  Q. Wu,  X. Xu,  W. Zhang

 Please cite Q-Chem as follows:
 Y. Shao et al., Mol. Phys. 113, 184-215 (2015)
 DOI: 10.1080/00268976.2014.952696

 Q-Chem 5.3.1 for Intel X86 EM64T Linux

 Parts of Q-Chem use Armadillo 9.800.1 (Horizon Scraper).
 http://arma.sourceforge.net/

 Q-Chem begins on Wed Jun 23 13:43:48 2021  

Host: 
0

     Scratch files written to /scratch/scaparas/job_3585319/qchem96239//
 Aug2920 |scratch|qcdevops|jenkins|workspace|build_RNUM    
Processing $rem in /cm/shared/apps/spack/cpu/opt/spack/linux-centos8-zen2/gcc-10.2.0/qchem-5.3-5qddma6gy34jvefiv7mbcb7qm253n45r/config/preferences:
Processing $rem in /home/scaparas/.qchemrc:

Checking the input file for inconsistencies... 	...done.

--------------------------------------------------------------
User input:
--------------------------------------------------------------
$molecule
0 1
C   -2.1510630    0.6892080    0.0000880
C   -2.1279270   -0.7158180    0.0000750
C   -0.9322970   -1.4131000   -0.0000110
C    0.2469110   -0.6702010   -0.0000420
C    0.2481930    0.7482990    0.0000000
C   -0.9794740    1.4235260    0.0000320
N    1.5617740   -1.0775920   -0.0002850
C    1.6201330    1.1629000   -0.0001570
C    2.3820130    0.0308060    0.0002480
H    1.8763150   -2.0300110    0.0004380
H    1.9921730    2.1730100   -0.0003480
H    3.4525490   -0.0824250    0.0004080
H   -3.0615940   -1.2620200    0.0000880
H   -0.9172520   -2.4953420   -0.0000730
H   -3.1042030    1.2007850    0.0000900
H   -1.0093480    2.5054210   -0.0000150
$end

$rem
BASIS  =  6-31+G*
GUI  =  2
JOB_TYPE  =  Optimization
METHOD  = MPW1PW91
SCF_CONVERGENCE  =  8
THRESH = 12
CIS_N_ROOTS  = 3
CIS_SINGLETS = true
CIS_TRIPLETS = false
CIS_STATE_DERIV = 2
MEM_STATIC=500
MEM_TOTAL=3000
$end
--------------------------------------------------------------
 ----------------------------------------------------------------
             Standard Nuclear Orientation (Angstroms)
    I     Atom           X                Y                Z
 ----------------------------------------------------------------
    1      C       2.1510629040    -0.6892079969     0.0000583065
    2      C       2.1279268385     0.7158180020     0.0000481775
    3      C       0.9322968051     1.4130999466    -0.0000206639
    4      C      -0.2469111607     0.6702008918    -0.0000373513
    5      C      -0.2481930942    -0.7482991083     0.0000020775
    6      C       0.9794739374    -1.4235260513     0.0000165335
    7      N      -1.5617741827     1.0775918311    -0.0002621374
    8      C      -1.6201330769    -1.1629001718    -0.0001374500
    9      C      -2.3820131241    -0.0308062080     0.0002797387
   10      H      -1.8763152174     2.0300108152     0.0004667797
   11      H      -1.9921730325    -2.1730101887    -0.0003253498
   12      H      -3.4525491271     0.0824247420     0.0004541695
   13      H       3.0615938132     1.2620200454     0.0000497686
   14      H       0.9172517540     2.4953419460    -0.0000804893
   15      H       3.1042029277    -1.2007849526     0.0000467087
   16      H       1.0093479871    -2.5054210498    -0.0000328375
 ----------------------------------------------------------------
 Molecular Point Group                 C1    NOp =  1
 Largest Abelian Subgroup              C1    NOp =  1
 Nuclear Repulsion Energy =         401.33686680 hartrees
 There are       31 alpha and       31 beta electrons
 Requested basis set is 6-31+G(d)
 There are 59 shells and 185 basis functions

 Total QAlloc Memory Limit   3000 MB
 Mega-Array Size       489 MB
 MEM_STATIC part       500 MB
 A cutoff of  1.0D-12 yielded   1657 shell pairs
 There are     17105 function pairs
 Smallest overlap matrix eigenvalue = 1.26E-06

 Scale SEOQF with 1.000000e-01/1.000000e-01/1.000000e-01

 Standard Electronic Orientation quadrupole field applied
 Nucleus-field energy     =     0.0000000117 hartrees
 Guess from superposition of atomic densities
 Warning:  Energy on first SCF cycle will be non-variational
 SAD guess density has 62.000000 electrons

 -----------------------------------------------------------------------
  General SCF calculation program by
  Eric Jon Sundstrom, Paul Horn, Yuezhi Mao, Dmitri Zuev, Alec White,
  David Stuck, Shaama M.S., Shane Yost, Joonho Lee, David Small,
  Daniel Levine, Susi Lehtola, Hugh Burton, Evgeny Epifanovsky,
  Bang C. Huynh
 -----------------------------------------------------------------------
 Exchange:     0.2500 Hartree-Fock + 0.7500 mPW91
 Correlation:  1.0000 PW91
 Using SG-1 standard quadrature grid
 using 4 threads for integral computing
 -------------------------------------------------------
 OpenMP Integral computing Module                
 Release: version 1.0, May 2013, Q-Chem Inc. Pittsburgh 
 -------------------------------------------------------
 A restricted SCF calculation will be
 performed using DIIS
 SCF converges when DIIS error is below 1.0e-08
 ---------------------------------------
  Cycle       Energy         DIIS error
 ---------------------------------------
    1    -366.2377036212      5.56e-02  
    2    -363.6375901528      4.68e-03  
    3    -363.6116745274      5.27e-03  
    4    -363.7398152763      1.28e-03  
    5    -363.7466120083      3.59e-04  
    6    -363.7471410032      1.00e-04  
    7    -363.7471791395      3.92e-05  
    8    -363.7471858867      7.52e-06  
    9    -363.7471861157      1.59e-06  
   10    -363.7471861265      6.26e-07  
   11    -363.7471861281      2.01e-07  
   12    -363.7471861283      6.80e-08  
   13    -363.7471861283      1.94e-08  
   14    -363.7471861283      5.85e-09  Convergence criterion met
 ---------------------------------------
 SCF time:   CPU 38.98s  wall 10.00s 
 SCF   energy in the final basis set =     -363.7471861283
 Total energy in the final basis set =     -363.7471861283
 
 Direct TDDFT/TDA calculation will be performed
 Exchange:     0.2500 Hartree-Fock + 0.7500 mPW91
 Correlation:  1.0000 PW91
 Using SG-1 standard quadrature grid
 Singlet excitation energies requested
 CIS energy converged when residual is below 10e- 6
 ---------------------------------------------------
 Iter    Rts Conv    Rts Left    Ttl Dev     Max Dev
 ---------------------------------------------------
   1         0           3      0.003663    0.001806
   2         0           3      0.001437    0.000789
   3         0           3      0.000329    0.000185
   4         0           3      0.000131    0.000075
   5         0           3      0.000046    0.000027
   6         1           2      0.000011    0.000006
   7         1           2      0.000004    0.000002
   8         3           0      0.000001    0.000001    Roots Converged
 ---------------------------------------------------
 
 ---------------------------------------------------
         TDDFT/TDA Excitation Energies              
 ---------------------------------------------------

 Excited state   1: excitation energy (eV) =    5.0226
 Total energy for state  1:                  -363.56261002 au
    Multiplicity: Singlet
    Trans. Mom.:  0.3967 X  -0.6608 Y  -0.0035 Z
    Strength   :     0.0731082199
    D(   30) --> V(    1) amplitude = -0.4125
    D(   30) --> V(    4) amplitude =  0.2402
    D(   31) --> V(    1) amplitude =  0.8146

 Excited state   2: excitation energy (eV) =    5.0291
 Total energy for state  2:                  -363.56237078 au
    Multiplicity: Singlet
    Trans. Mom.:  0.0090 X  -0.0178 Y   0.1284 Z
    Strength   :     0.0020790066
    D(   31) --> V(    2) amplitude =  0.9940

 Excited state   3: excitation energy (eV) =    5.0727
 Total energy for state  3:                  -363.56076602 au
    Multiplicity: Singlet
    Trans. Mom.:  0.6561 X  -0.1014 Y   0.0003 Z
    Strength   :     0.0547813416
    D(   30) --> V(    1) amplitude =  0.6700
    D(   31) --> V(    1) amplitude =  0.4161
    D(   31) --> V(    4) amplitude = -0.5804
 
 ---------------------------------------------------
 Calculating Relaxed Density
 ---------------------------------------------------
 Iter    Rts Conv    Rts Left    Ttl Dev     Max Dev
 ---------------------------------------------------
   1         0           3      0.001510    0.000807
   2         0           3      0.000604    0.000307
   3         0           3      0.000128    0.000056
   4         0           3      0.000032    0.000017
   5         0           3      0.000008    0.000004
   6         3           0      0.000000    0.000000    Roots Converged
 ---------------------------------------------------
  SETman timing summary (seconds)
  CPU time               110.73s
  System time              0.00s
  Wall time               27.83s
 
 --------------------------------------------------------------
 
                    Orbital Energies (a.u.)
 --------------------------------------------------------------
 
 Alpha MOs
 -- Occupied --
-14.4643 -10.2848 -10.2829 -10.2525 -10.2485 -10.2471 -10.2470 -10.2419
-10.2396  -1.0145  -0.8687  -0.8105  -0.7619  -0.7433  -0.6474  -0.6174
 -0.6037  -0.5606  -0.5019  -0.4895  -0.4550  -0.4464  -0.4404  -0.4279
 -0.4080  -0.3704  -0.3505  -0.3495  -0.2934  -0.2357  -0.2187
 -- Virtual --
 -0.0126   0.0013   0.0206   0.0242   0.0258   0.0413   0.0421   0.0507
  0.0639   0.0645   0.0702   0.0716   0.0899   0.0930   0.1111   0.1115
  0.1178   0.1300   0.1390   0.1451   0.1599   0.1604   0.1716   0.1721
  0.1796   0.1877   0.1933   0.1940   0.2036   0.2076   0.2083   0.2100
  0.2258   0.2321   0.2389   0.2416   0.2465   0.2535   0.2655   0.2680
  0.2777   0.2789   0.2866   0.3040   0.3100   0.3190   0.3244   0.3409
  0.3589   0.3766   0.3881   0.4089   0.4474   0.4599   0.5256   0.5947
  0.6398   0.6873   0.6879   0.7141   0.7299   0.7351   0.7444   0.7516
  0.7571   0.7683   0.7728   0.7933   0.8080   0.8158   0.8295   0.8697
  0.9100   0.9182   0.9298   0.9528   0.9603   0.9688   0.9749   1.0002
  1.0198   1.0467   1.0631   1.0804   1.1081   1.1267   1.1305   1.1846
  1.1933   1.2187   1.2383   1.2460   1.2663   1.3322   1.3328   1.3526
  1.3830   1.4267   1.4320   1.4672   1.4727   1.4796   1.5107   1.5164
  1.5542   1.6048   1.6653   1.8030   1.8612   1.9006   1.9076   1.9391
  1.9597   2.0128   2.0155   2.0217   2.0816   2.1183   2.1603   2.1910
  2.1913   2.2170   2.2665   2.2784   2.2836   2.3044   2.3335   2.3996
  2.4276   2.4659   2.5685   2.5782   2.6576   2.6793   2.6902   2.7215
  2.7580   2.8317   2.8688   2.8804   2.9773   3.0021   3.1362   3.2667
  3.4727   4.1787   4.2900   4.3197   4.3545   4.3905   4.4260   4.5094
  4.5487   4.8190
 --------------------------------------------------------------
 
          Ground-State Mulliken Net Atomic Charges

     Atom                 Charge (a.u.)
  ----------------------------------------
      1 C                     0.009242
      2 C                    -0.535331
      3 C                    -0.111381
      4 C                    -1.184854
      5 C                     1.579336
      6 C                    -0.797458
      7 N                    -0.456348
      8 C                     0.019082
      9 C                    -0.220391
     10 H                     0.435652
     11 H                     0.218284
     12 H                     0.216339
     13 H                     0.205636
     14 H                     0.206119
     15 H                     0.204130
     16 H                     0.211943
  ----------------------------------------
  Sum of atomic charges =     0.000000

 -----------------------------------------------------------------
                    Cartesian Multipole Moments
 -----------------------------------------------------------------
    Charge (ESU x 10^10)
                -0.0000
    Dipole Moment (Debye)
         X      -1.5121      Y       1.5621      Z       0.0011
       Tot       2.1741
    Quadrupole Moments (Debye-Ang)
        XX     -44.6814     XY      -3.1705     YY     -43.8425
        XZ      -0.0032     YZ       0.0033     ZZ     -58.5421
    Octopole Moments (Debye-Ang^2)
       XXX     -14.5220    XXY       8.1947    XYY      -7.9431
       YYY      10.3807    XXZ       0.0076    XYZ      -0.0067
       YYZ       0.0021    XZZ      -1.9951    YZZ       1.9875
       ZZZ      -0.0009
    Hexadecapole Moments (Debye-Ang^3)
      XXXX    -800.9724   XXXY     -21.5139   XXYY    -192.8044
      XYYY     -19.4785   YYYY    -362.3636   XXXZ      -0.0242
      XXYZ       0.0131   XYYZ      -0.0071   YYYZ       0.0143
      XXZZ    -187.1459   XYZZ      -3.9001   YYZZ     -92.4126
      XZZZ      -0.0011   YZZZ       0.0029   ZZZZ     -71.2454
 -----------------------------------------------------------------
 Calculating analytic gradient of the CIS energy
 CIS relaxed dipole moment
            1
    1   2.3947413
    2  -2.6860164
    3   0.0232275
	Magnitude:	 3.599 au	 9.147 Debye
 CIS 2 State Energy is -363.5623707789
 Gradient of the state energy (including CIS Excitation Energy)
            1           2           3           4           5           6
    1  -0.0118549  -0.0149934   0.0294505  -0.0078951   0.0073775   0.0068761
    2  -0.0137304   0.0246646  -0.0067082   0.0000673  -0.0027521   0.0087046
    3   0.0000534  -0.0000977   0.0002040   0.0001059  -0.0000255   0.0000644
            7           8           9          10          11          12
    1   0.0210955  -0.0396490  -0.0085492   0.0132981   0.0016532   0.0052648
    2   0.0633959   0.0231347  -0.0703225  -0.0285745   0.0039509  -0.0035397
    3  -0.0003815  -0.0000883   0.0002099   0.0000968  -0.0000054   0.0000109
           13          14          15          16
    1  -0.0016749   0.0016743  -0.0017162  -0.0003573
    2  -0.0009918  -0.0004337   0.0011024   0.0020326
    3  -0.0000200  -0.0000859   0.0000044  -0.0000455
 Gradient time:  CPU 22.01 s  wall 5.65 s
 Geometry Optimization Parameters
   NAtoms,    NIC,     NZ,  NCons,   NDum,   NFix, NCnnct, MaxDiis
       16     116       0       0       0       0       0       0


** GEOMETRY OPTIMIZATION IN DELOCALIZED INTERNAL COORDINATES **
   Searching for a Minimum

   Optimization Cycle:   1

                       Coordinates (Angstroms)
     ATOM                X               Y               Z
      1  C         2.1510629040   -0.6892079969    0.0000583065
      2  C         2.1279268385    0.7158180020    0.0000481775
      3  C         0.9322968051    1.4130999466   -0.0000206639
      4  C        -0.2469111607    0.6702008918   -0.0000373513
      5  C        -0.2481930942   -0.7482991083    0.0000020775
      6  C         0.9794739374   -1.4235260513    0.0000165335
      7  N        -1.5617741827    1.0775918311   -0.0002621374
      8  C        -1.6201330769   -1.1629001718   -0.0001374500
      9  C        -2.3820131241   -0.0308062080    0.0002797387
     10  H        -1.8763152174    2.0300108152    0.0004667797
     11  H        -1.9921730325   -2.1730101887   -0.0003253498
     12  H        -3.4525491271    0.0824247420    0.0004541695
     13  H         3.0615938132    1.2620200454    0.0000497686
     14  H         0.9172517540    2.4953419460   -0.0000804893
     15  H         3.1042029277   -1.2007849526    0.0000467087
     16  H         1.0093479871   -2.5054210498   -0.0000328375
   Point Group: c1    Number of degrees of freedom:    42


   Energy is   -363.562370779


 Attempting to generate delocalized internal coordinates
 Initial Hessian constructed with Jon Baker's OPTIMIZE code

 42 Hessian modes will be used to form the next step
  Hessian Eigenvalues:
     0.018594    0.019738    0.020011    0.020794    0.021683    0.022200
     0.022636    0.023004    0.023236    0.023608    0.023851    0.023984
     0.024127    0.160000    0.160000    0.160000    0.160000    0.160000
     0.160000    0.160000    0.220000    0.221879    0.226618    0.240111
     0.246509    0.357123    0.357170    0.357835    0.357899    0.364196
     0.364272    0.370088    0.384319    0.426334    0.434649    0.457693
     0.466917    0.471622    0.474685    0.475669    0.481247    0.509555

 Minimum search - taking simple RFO step
 Searching for Lamda that Minimizes Along All modes
 Value Taken    Lamda =  -0.01398400
 Step Taken.  Stepsize is  0.174302

                             Maximum     Tolerance    Cnvgd?
         Gradient           0.037620      0.000300      NO
         Displacement       0.094950      0.001200      NO
         Energy change     *********      0.000001      NO


 New Cartesian Coordinates Obtained by Inverse Iteration

 Displacement from previous Coordinates is:  0.244001
 ----------------------------------------------------------------
             Standard Nuclear Orientation (Angstroms)
    I     Atom           X                Y                Z
 ----------------------------------------------------------------
    1      C       2.1746370126    -0.6996841274    -0.0005183696
    2      C       2.1257125397     0.6952413116    -0.0000931388
    3      C       0.9037391517     1.4016310108    -0.0005249500
    4      C      -0.2597999376     0.6609388441    -0.0000440104
    5      C      -0.2337266007    -0.7540875694     0.0002533059
    6      C       0.9946605611    -1.4411167118    -0.0002328607
    7      N      -1.5814713461     1.0718357359     0.0007356565
    8      C      -1.5902155916    -1.1584262096     0.0006116476
    9      C      -2.3751869803     0.0080281973    -0.0002579570
   10      H      -1.9239903926     2.0507628777     0.0004251752
   11      H      -1.9672752230    -2.1730707693     0.0004524843
   12      H      -3.4511350427     0.1427718472    -0.0009801020
   13      H       3.0554858070     1.2534517064     0.0004297241
   14      H       0.8733678837     2.4842093011     0.0005285709
   15      H       3.1349137015    -1.2039846444    -0.0004976267
   16      H       1.0233794085    -2.5259483077     0.0002384318
 ----------------------------------------------------------------
 Molecular Point Group                 C1    NOp =  1
 Largest Abelian Subgroup              C1    NOp =  1
 Nuclear Repulsion Energy =         401.24150762 hartrees
 There are       31 alpha and       31 beta electrons
 Applying Cartesian multipole field
    Component          Value
    ---------          -----
     (2,0,0)        1.00000E-11
     (0,2,0)        2.00000E-11
     (0,0,2)       -3.00000E-11
 Nucleus-field energy     =     0.0000000117 hartrees
 Requested basis set is 6-31+G(d)
 There are 59 shells and 185 basis functions
 A cutoff of  1.0D-12 yielded   1658 shell pairs
 There are     17111 function pairs
 Smallest overlap matrix eigenvalue = 1.18E-06
 Guess MOs from SCF MO coefficient file

 -----------------------------------------------------------------------
  General SCF calculation program by
  Eric Jon Sundstrom, Paul Horn, Yuezhi Mao, Dmitri Zuev, Alec White,
  David Stuck, Shaama M.S., Shane Yost, Joonho Lee, David Small,
  Daniel Levine, Susi Lehtola, Hugh Burton, Evgeny Epifanovsky,
  Bang C. Huynh
 -----------------------------------------------------------------------
 Exchange:     0.2500 Hartree-Fock + 0.7500 mPW91
 Correlation:  1.0000 PW91
 Using SG-1 standard quadrature grid
 using 4 threads for integral computing
 -------------------------------------------------------
 OpenMP Integral computing Module                
 Release: version 1.0, May 2013, Q-Chem Inc. Pittsburgh 
 -------------------------------------------------------
 A restricted SCF calculation will be
 performed using DIIS
 SCF converges when DIIS error is below 1.0e-08
 ---------------------------------------
  Cycle       Energy         DIIS error
 ---------------------------------------
    1    -363.7373617290      8.58e-04  
    2    -363.7413495180      2.03e-04  
    3    -363.7413907579      1.78e-04  
    4    -363.7415036154      6.56e-05  
    5    -363.7415199786      2.28e-05  
    6    -363.7415224289      5.69e-06  
    7    -363.7415225704      2.14e-06  
    8    -363.7415225919      8.36e-07  
    9    -363.7415225952      2.63e-07  
   10    -363.7415225955      5.41e-08  
   11    -363.7415225955      3.16e-08  
   12    -363.7415225955      3.78e-09  Convergence criterion met
 ---------------------------------------
 SCF time:   CPU 34.45s  wall 8.00s 
 SCF   energy in the final basis set =     -363.7415225955
 Total energy in the final basis set =     -363.7415225955
 
 Direct TDDFT/TDA calculation will be performed
 Exchange:     0.2500 Hartree-Fock + 0.7500 mPW91
 Correlation:  1.0000 PW91
 Using SG-1 standard quadrature grid
 Singlet excitation energies requested
 CIS energy converged when residual is below 10e- 6
 ---------------------------------------------------
 Iter    Rts Conv    Rts Left    Ttl Dev     Max Dev
 ---------------------------------------------------
   1         0           3      0.003703    0.001832
   2         0           3      0.001647    0.001124
   3         0           3      0.000442    0.000330
   4         0           3      0.000176    0.000135
   5         0           3      0.000059    0.000045
   6         1           2      0.000016    0.000012
   7         1           2      0.000006    0.000005
   8         2           1      0.000002    0.000002
   9         3           0      0.000001    0.000000    Roots Converged
 ---------------------------------------------------
 
 ---------------------------------------------------
         TDDFT/TDA Excitation Energies              
 ---------------------------------------------------

 Excited state   1: excitation energy (eV) =    4.6450
 Total energy for state  1:                  -363.57082240 au
    Multiplicity: Singlet
    Trans. Mom.: -0.0028 X   0.0021 Y  -0.1261 Z
    Strength   :     0.0018095960
    D(   31) --> V(    2) amplitude =  0.9954

 Excited state   2: excitation energy (eV) =    4.7547
 Total energy for state  2:                  -363.56678895 au
    Multiplicity: Singlet
    Trans. Mom.: -0.8693 X   0.6526 Y   0.0001 Z
    Strength   :     0.1376348289
    D(   30) --> V(    4) amplitude =  0.2210
    D(   31) --> V(    1) amplitude =  0.9152

 Excited state   3: excitation energy (eV) =    5.0423
 Total energy for state  3:                  -363.55622218 au
    Multiplicity: Singlet
    Trans. Mom.:  0.0577 X  -0.2228 Y   0.0001 Z
    Strength   :     0.0065414596
    D(   30) --> V(    1) amplitude =  0.7266
    D(   31) --> V(    4) amplitude = -0.6486
 
 ---------------------------------------------------
 Calculating Relaxed Density
 ---------------------------------------------------
 Iter    Rts Conv    Rts Left    Ttl Dev     Max Dev
 ---------------------------------------------------
   1         0           3      0.001597    0.000868
   2         0           3      0.000625    0.000296
   3         0           3      0.000147    0.000066
   4         0           3      0.000039    0.000018
   5         1           2      0.000008    0.000005
   6         1           2      0.000002    0.000001
   7         3           0      0.000000    0.000000    Roots Converged
 ---------------------------------------------------
  SETman timing summary (seconds)
  CPU time               117.85s
  System time              0.00s
  Wall time               29.62s
 
 --------------------------------------------------------------
 
                    Orbital Energies (a.u.)
 --------------------------------------------------------------
 
 Alpha MOs
 -- Occupied --
-14.4711 -10.2865 -10.2817 -10.2543 -10.2488 -10.2482 -10.2477 -10.2443
-10.2384  -1.0251  -0.8693  -0.8054  -0.7679  -0.7346  -0.6503  -0.6169
 -0.6024  -0.5608  -0.5008  -0.4897  -0.4566  -0.4478  -0.4460  -0.4200
 -0.4064  -0.3703  -0.3524  -0.3498  -0.2901  -0.2426  -0.2089
 -- Virtual --
 -0.0153  -0.0028   0.0204   0.0250   0.0264   0.0409   0.0425   0.0508
  0.0634   0.0645   0.0693   0.0707   0.0906   0.0924   0.1110   0.1115
  0.1167   0.1304   0.1386   0.1421   0.1574   0.1602   0.1705   0.1716
  0.1796   0.1868   0.1935   0.1936   0.2025   0.2077   0.2095   0.2101
  0.2257   0.2308   0.2394   0.2412   0.2451   0.2538   0.2617   0.2679
  0.2774   0.2795   0.2867   0.3052   0.3056   0.3167   0.3269   0.3437
  0.3623   0.3715   0.3853   0.4062   0.4434   0.4603   0.5289   0.5932
  0.6367   0.6874   0.6886   0.7128   0.7357   0.7362   0.7452   0.7503
  0.7551   0.7702   0.7799   0.7928   0.8076   0.8131   0.8294   0.8700
  0.9043   0.9136   0.9257   0.9567   0.9611   0.9707   0.9736   1.0032
  1.0194   1.0412   1.0587   1.0626   1.1047   1.1248   1.1302   1.1897
  1.1904   1.2199   1.2360   1.2452   1.2613   1.3268   1.3399   1.3567
  1.3807   1.4262   1.4320   1.4678   1.4750   1.4808   1.5094   1.5156
  1.5615   1.6048   1.6672   1.7870   1.8534   1.9039   1.9127   1.9303
  1.9621   2.0074   2.0104   2.0222   2.0771   2.1118   2.1626   2.1849
  2.1936   2.2013   2.2643   2.2737   2.2858   2.3204   2.3375   2.3960
  2.4356   2.4753   2.5620   2.5847   2.6590   2.6704   2.6869   2.7134
  2.7509   2.8311   2.8646   2.8770   2.9716   3.0034   3.1240   3.2736
  3.4647   4.1865   4.2853   4.3150   4.3464   4.3910   4.4274   4.5099
  4.5491   4.8200
 --------------------------------------------------------------
 
          Ground-State Mulliken Net Atomic Charges

     Atom                 Charge (a.u.)
  ----------------------------------------
      1 C                    -0.013232
      2 C                    -0.523923
      3 C                    -0.167776
      4 C                    -1.209719
      5 C                     1.626090
      6 C                    -0.697058
      7 N                    -0.407141
      8 C                    -0.098363
      9 C                    -0.204932
     10 H                     0.436506
     11 H                     0.214956
     12 H                     0.215812
     13 H                     0.203943
     14 H                     0.204902
     15 H                     0.206732
     16 H                     0.213202
  ----------------------------------------
  Sum of atomic charges =     0.000000

 -----------------------------------------------------------------
                    Cartesian Multipole Moments
 -----------------------------------------------------------------
    Charge (ESU x 10^10)
                -0.0000
    Dipole Moment (Debye)
         X      -1.5913      Y       1.8035      Z       0.0003
       Tot       2.4051
    Quadrupole Moments (Debye-Ang)
        XX     -44.6032     XY      -4.2193     YY     -43.8653
        XZ       0.0074     YZ       0.0019     ZZ     -58.6939
    Octopole Moments (Debye-Ang^2)
       XXX     -14.9104    XXY       9.8119    XYY      -8.5634
       YYY      11.7281    XXZ      -0.0086    XYZ       0.0043
       YYZ       0.0120    XZZ      -2.1482    YZZ       2.4275
       ZZZ       0.0020
    Hexadecapole Moments (Debye-Ang^3)
      XXXX    -801.7872   XXXY     -23.4044   XXYY    -192.4279
      XYYY     -17.1417   YYYY    -362.3730   XXXZ       0.1243
      XXYZ       0.0125   XYYZ       0.0263   YYYZ       0.0133
      XXZZ    -188.0598   XYZZ      -2.2428   YYZZ     -92.9388
      XZZZ       0.0678   YZZZ       0.0034   ZZZZ     -71.8732
 -----------------------------------------------------------------
 Calculating analytic gradient of the CIS energy
 CIS relaxed dipole moment
            1
    1  -1.8862013
    2   0.5872748
    3  -0.0020831
	Magnitude:	 1.976 au	 5.021 Debye
 CIS 2 State Energy is -363.5667889482
 Gradient of the state energy (including CIS Excitation Energy)
            1           2           3           4           5           6
    1  -0.0134098  -0.0130881  -0.0043340  -0.0102338   0.0056809   0.0074066
    2  -0.0204706   0.0148220  -0.0330069   0.0286092  -0.0211319   0.0281488
    3  -0.0000444   0.0000327  -0.0000535  -0.0000767  -0.0000174  -0.0000170
            7           8           9          10          11          12
    1   0.0108220  -0.0054889   0.0348928  -0.0100546   0.0016143  -0.0020633
    2  -0.0211337   0.0111435  -0.0075533   0.0211346  -0.0015267   0.0043824
    3   0.0001576   0.0001164  -0.0001071  -0.0000176  -0.0000082  -0.0000320
           13          14          15          16
    1  -0.0004051  -0.0024222  -0.0001861   0.0012695
    2  -0.0013707  -0.0019258  -0.0002926   0.0001718
    3   0.0000086   0.0000328   0.0000042   0.0000216
 Gradient time:  CPU 21.32 s  wall 5.36 s
 Geometry Optimization Parameters
   NAtoms,    NIC,     NZ,  NCons,   NDum,   NFix, NCnnct, MaxDiis
       16     116       0       0       0       0       0       0

 Cartesian Hessian Update
 Hessian updated using BFGS update


** GEOMETRY OPTIMIZATION IN DELOCALIZED INTERNAL COORDINATES **
   Searching for a Minimum

   Optimization Cycle:   2

                       Coordinates (Angstroms)
     ATOM                X               Y               Z
      1  C         2.1746370126   -0.6996841274   -0.0005183696
      2  C         2.1257125397    0.6952413116   -0.0000931388
      3  C         0.9037391517    1.4016310108   -0.0005249500
      4  C        -0.2597999376    0.6609388441   -0.0000440104
      5  C        -0.2337266007   -0.7540875694    0.0002533059
      6  C         0.9946605611   -1.4411167118   -0.0002328607
      7  N        -1.5814713461    1.0718357359    0.0007356565
      8  C        -1.5902155916   -1.1584262096    0.0006116476
      9  C        -2.3751869803    0.0080281973   -0.0002579570
     10  H        -1.9239903926    2.0507628777    0.0004251752
     11  H        -1.9672752230   -2.1730707693    0.0004524843
     12  H        -3.4511350427    0.1427718472   -0.0009801020
     13  H         3.0554858070    1.2534517064    0.0004297241
     14  H         0.8733678837    2.4842093011    0.0005285709
     15  H         3.1349137015   -1.2039846444   -0.0004976267
     16  H         1.0233794085   -2.5259483077    0.0002384318
   Point Group: c1    Number of degrees of freedom:    42


   Energy is   -363.566788948

 Hessian updated using BFGS update

 40 Hessian modes will be used to form the next step
  Hessian Eigenvalues:
     0.018594    0.019738    0.020011    0.020794    0.021684    0.022200
     0.022636    0.023004    0.023236    0.023609    0.023851    0.023984
     0.024128    0.157846    0.160000    0.160000    0.160000    0.163312
     0.184361    0.221414    0.226066    0.244781    0.249820    0.315886
     0.357199    0.357352    0.357867    0.358449    0.364273    0.365438
     0.373987    0.388374    0.426798    0.436162    0.460750    0.468601
     0.474313    0.475628    0.493965    0.951144

 Minimum search - taking simple RFO step
 Searching for Lamda that Minimizes Along All modes
 Value Taken    Lamda =  -0.00794760
 Step Taken.  Stepsize is  0.164869

                             Maximum     Tolerance    Cnvgd?
         Gradient           0.026027      0.000300      NO
         Displacement       0.066664      0.001200      NO
         Energy change     -0.004418      0.000001      NO


 New Cartesian Coordinates Obtained by Inverse Iteration

 Displacement from previous Coordinates is:  0.191975
 ----------------------------------------------------------------
             Standard Nuclear Orientation (Angstroms)
    I     Atom           X                Y                Z
 ----------------------------------------------------------------
    1      C       2.1948429423    -0.6956836616    -0.0003224662
    2      C       2.1463306303     0.6920662419     0.0000563716
    3      C       0.9080685067     1.4280263786    -0.0006705085
    4      C      -0.2540877842     0.6512754692    -0.0001686528
    5      C      -0.2307625517    -0.7532733411     0.0000664176
    6      C       0.9998044093    -1.4674028385    -0.0003564183
    7      N      -1.6002469785     1.0535909841     0.0004950240
    8      C      -1.5904623710    -1.1546555629     0.0002395943
    9      C      -2.4149717064     0.0257550217     0.0001202105
   10      H      -1.9304844895     2.0325766369    -0.0001173962
   11      H      -1.9725090897    -2.1697784269     0.0002267372
   12      H      -3.4928523979     0.1532519345     0.0000337231
   13      H       3.0790062528     1.2510058672     0.0007129784
   14      H       0.8807542857     2.5134259127     0.0004098098
   15      H       3.1603498314    -1.1934411736    -0.0002294614
   16      H       1.0203154618    -2.5541869496     0.0000300182
 ----------------------------------------------------------------
 Molecular Point Group                 C1    NOp =  1
 Largest Abelian Subgroup              C1    NOp =  1
 Nuclear Repulsion Energy =         398.45244558 hartrees
 There are       31 alpha and       31 beta electrons
 Applying Cartesian multipole field
    Component          Value
    ---------          -----
     (2,0,0)        1.00000E-11
     (0,2,0)        2.00000E-11
     (0,0,2)       -3.00000E-11
 Nucleus-field energy     =     0.0000000119 hartrees
 Requested basis set is 6-31+G(d)
 There are 59 shells and 185 basis functions
 A cutoff of  1.0D-12 yielded   1657 shell pairs
 There are     17105 function pairs
 Smallest overlap matrix eigenvalue = 1.29E-06
 Guess MOs from SCF MO coefficient file

 -----------------------------------------------------------------------
  General SCF calculation program by
  Eric Jon Sundstrom, Paul Horn, Yuezhi Mao, Dmitri Zuev, Alec White,
  David Stuck, Shaama M.S., Shane Yost, Joonho Lee, David Small,
  Daniel Levine, Susi Lehtola, Hugh Burton, Evgeny Epifanovsky,
  Bang C. Huynh
 -----------------------------------------------------------------------
 Exchange:     0.2500 Hartree-Fock + 0.7500 mPW91
 Correlation:  1.0000 PW91
 Using SG-1 standard quadrature grid
 using 4 threads for integral computing
 -------------------------------------------------------
 OpenMP Integral computing Module                
 Release: version 1.0, May 2013, Q-Chem Inc. Pittsburgh 
 -------------------------------------------------------
 A restricted SCF calculation will be
 performed using DIIS
 SCF converges when DIIS error is below 1.0e-08
 ---------------------------------------
  Cycle       Energy         DIIS error
 ---------------------------------------
    1    -363.7300337257      7.55e-04  
    2    -363.7328943657      1.76e-04  
    3    -363.7329236451      1.60e-04  
    4    -363.7330299674      2.70e-05  
    5    -363.7330325403      1.20e-05  
    6    -363.7330331706      4.84e-06  
    7    -363.7330332789      9.73e-07  
    8    -363.7330332834      4.53e-07  
    9    -363.7330332843      1.77e-07  
   10    -363.7330332844      5.38e-08  
   11    -363.7330332844      1.49e-08  
   12    -363.7330332844      4.88e-09  Convergence criterion met
 ---------------------------------------
 SCF time:   CPU 34.16s  wall 9.00s 
 SCF   energy in the final basis set =     -363.7330332844
 Total energy in the final basis set =     -363.7330332844
 
 Direct TDDFT/TDA calculation will be performed
 Exchange:     0.2500 Hartree-Fock + 0.7500 mPW91
 Correlation:  1.0000 PW91
 Using SG-1 standard quadrature grid
 Singlet excitation energies requested
 CIS energy converged when residual is below 10e- 6
 ---------------------------------------------------
 Iter    Rts Conv    Rts Left    Ttl Dev     Max Dev
 ---------------------------------------------------
   1         0           3      0.002134    0.001824
   2         0           3      0.000470    0.000386
   3         0           3      0.000126    0.000090
   4         0           3      0.000057    0.000033
   5         0           3      0.000024    0.000013
   6         1           2      0.000020    0.000012
   7         1           2      0.000517    0.000514
   8         1           2      0.000246    0.000244
   9         2           1      0.000062    0.000061
  10         2           1      0.000016    0.000016
  11         2           1      0.000008    0.000007
  12         2           1      0.000003    0.000002
  13         3           0      0.000001    0.000001    Roots Converged
 ---------------------------------------------------
 
 ---------------------------------------------------
         TDDFT/TDA Excitation Energies              
 ---------------------------------------------------

 Excited state   1: excitation energy (eV) =    4.4220
 Total energy for state  1:                  -363.57052918 au
    Multiplicity: Singlet
    Trans. Mom.: -0.8446 X   0.7120 Y  -0.0006 Z
    Strength   :     0.1322023705
    D(   31) --> V(    1) amplitude =  0.9258

 Excited state   2: excitation energy (eV) =    4.5050
 Total energy for state  2:                  -363.56747868 au
    Multiplicity: Singlet
    Trans. Mom.: -0.0030 X   0.0026 Y   0.1275 Z
    Strength   :     0.0017962070
    D(   31) --> V(    2) amplitude =  0.9954

 Excited state   3: excitation energy (eV) =    4.9349
 Total energy for state  3:                  -363.55167891 au
    Multiplicity: Singlet
    Trans. Mom.:  0.1255 X  -0.2042 Y   0.0001 Z
    Strength   :     0.0069454529
    D(   30) --> V(    1) amplitude = -0.7055
    D(   31) --> V(    4) amplitude = -0.6687
 
 ---------------------------------------------------
 Calculating Relaxed Density
 ---------------------------------------------------
 Iter    Rts Conv    Rts Left    Ttl Dev     Max Dev
 ---------------------------------------------------
   1         0           3      0.001688    0.000891
   2         0           3      0.000655    0.000292
   3         0           3      0.000155    0.000074
   4         0           3      0.000042    0.000020
   5         1           2      0.000009    0.000005
   6         2           1      0.000002    0.000002
   7         3           0      0.000000    0.000000    Roots Converged
 ---------------------------------------------------
  SETman timing summary (seconds)
  CPU time               131.22s
  System time              0.00s
  Wall time               32.99s
 
 --------------------------------------------------------------
 
                    Orbital Energies (a.u.)
 --------------------------------------------------------------
 
 Alpha MOs
 -- Occupied --
-14.4718 -10.2903 -10.2861 -10.2624 -10.2553 -10.2521 -10.2513 -10.2494
-10.2395  -1.0243  -0.8661  -0.7998  -0.7681  -0.7298  -0.6522  -0.6151
 -0.5980  -0.5606  -0.5019  -0.4907  -0.4546  -0.4489  -0.4442  -0.4147
 -0.4069  -0.3675  -0.3552  -0.3513  -0.2855  -0.2464  -0.2036
 -- Virtual --
 -0.0226  -0.0027   0.0200   0.0239   0.0266   0.0403   0.0422   0.0487
  0.0630   0.0642   0.0687   0.0704   0.0900   0.0920   0.1097   0.1110
  0.1162   0.1305   0.1376   0.1425   0.1563   0.1589   0.1694   0.1704
  0.1802   0.1836   0.1919   0.1923   0.2005   0.2040   0.2068   0.2100
  0.2240   0.2279   0.2381   0.2403   0.2438   0.2513   0.2585   0.2679
  0.2738   0.2797   0.2860   0.2982   0.3043   0.3111   0.3252   0.3431
  0.3588   0.3645   0.3765   0.3971   0.4323   0.4595   0.5225   0.5853
  0.6207   0.6836   0.6879   0.7120   0.7312   0.7376   0.7447   0.7462
  0.7489   0.7703   0.7779   0.7900   0.8065   0.8065   0.8234   0.8673
  0.9017   0.9088   0.9190   0.9564   0.9626   0.9700   0.9719   1.0021
  1.0139   1.0418   1.0609   1.0623   1.1006   1.1233   1.1329   1.1826
  1.1877   1.2191   1.2335   1.2461   1.2559   1.3262   1.3375   1.3593
  1.3734   1.4151   1.4170   1.4562   1.4803   1.4878   1.5008   1.5111
  1.5565   1.5897   1.6465   1.7934   1.8351   1.8876   1.9096   1.9182
  1.9479   2.0036   2.0049   2.0145   2.0464   2.0848   2.1353   2.1701
  2.1883   2.2097   2.2353   2.2562   2.2961   2.3044   2.3278   2.3834
  2.4161   2.4734   2.5364   2.5720   2.6369   2.6602   2.6664   2.6875
  2.7438   2.8124   2.8448   2.8639   2.9620   2.9906   3.0940   3.2583
  3.4219   4.1806   4.2711   4.3073   4.3384   4.3837   4.4273   4.5017
  4.5451   4.8037
 --------------------------------------------------------------
 
          Ground-State Mulliken Net Atomic Charges

     Atom                 Charge (a.u.)
  ----------------------------------------
      1 C                    -0.050989
      2 C                    -0.454983
      3 C                    -0.267446
      4 C                    -1.208934
      5 C                     1.666918
      6 C                    -0.626672
      7 N                    -0.394462
      8 C                    -0.192666
      9 C                    -0.177003
     10 H                     0.434537
     11 H                     0.211847
     12 H                     0.221424
     13 H                     0.204491
     14 H                     0.209712
     15 H                     0.207473
     16 H                     0.216751
  ----------------------------------------
  Sum of atomic charges =     0.000000

 -----------------------------------------------------------------
                    Cartesian Multipole Moments
 -----------------------------------------------------------------
    Charge (ESU x 10^10)
                -0.0000
    Dipole Moment (Debye)
         X      -1.5512      Y       1.8828      Z       0.0007
       Tot       2.4395
    Quadrupole Moments (Debye-Ang)
        XX     -44.2268     XY      -4.3706     YY     -43.9848
        XZ       0.0057     YZ       0.0007     ZZ     -59.0388
    Octopole Moments (Debye-Ang^2)
       XXX     -16.4514    XXY      10.3579    XYY      -7.6199
       YYY      11.9609    XXZ       0.0063    XYZ       0.0079
       YYZ       0.0090    XZZ      -2.1497    YZZ       2.6153
       ZZZ       0.0092
    Hexadecapole Moments (Debye-Ang^3)
      XXXX    -807.6774   XXXY     -24.4355   XXYY    -197.1850
      XYYY     -16.5441   YYYY    -364.8554   XXXZ       0.0842
      XXYZ       0.0068   XYYZ       0.0322   YYYZ       0.0056
      XXZZ    -192.0708   XYZZ      -2.4931   YYZZ     -94.3360
      XZZZ       0.0564   YZZZ       0.0004   ZZZZ     -73.0199
 -----------------------------------------------------------------
 Calculating analytic gradient of the CIS energy
 CIS relaxed dipole moment
            1
    1   2.5299087
    2  -2.6870887
    3  -0.0019726
	Magnitude:	 3.691 au	 9.381 Debye
 CIS 2 State Energy is -363.5674786773
 Gradient of the state energy (including CIS Excitation Energy)
            1           2           3           4           5           6
    1   0.0186020   0.0158429   0.0000665  -0.0084693   0.0034525  -0.0076508
    2   0.0172917  -0.0165142   0.0239955  -0.0272986   0.0158208  -0.0207722
    3  -0.0000115   0.0000832  -0.0002220   0.0000057   0.0000485  -0.0000816
            7           8           9          10          11          12
    1  -0.0094410   0.0064843  -0.0263983   0.0045496  -0.0006182   0.0007647
    2   0.0041907   0.0064971   0.0113692  -0.0134779  -0.0012247  -0.0007704
    3   0.0001425   0.0000313  -0.0000742  -0.0000347  -0.0000017  -0.0000065
           13          14          15          16
    1   0.0020485  -0.0004486   0.0016721  -0.0004570
    2   0.0001642   0.0029470   0.0003032  -0.0025213
    3   0.0000134   0.0000745   0.0000009   0.0000322
 Gradient time:  CPU 21.15 s  wall 5.32 s
 Geometry Optimization Parameters
   NAtoms,    NIC,     NZ,  NCons,   NDum,   NFix, NCnnct, MaxDiis
       16     116       0       0       0       0       0       0

 Cartesian Hessian Update
 Hessian updated using BFGS update


** GEOMETRY OPTIMIZATION IN DELOCALIZED INTERNAL COORDINATES **
   Searching for a Minimum

   Optimization Cycle:   3

                       Coordinates (Angstroms)
     ATOM                X               Y               Z
      1  C         2.1948429423   -0.6956836616   -0.0003224662
      2  C         2.1463306303    0.6920662419    0.0000563716
      3  C         0.9080685067    1.4280263786   -0.0006705085
      4  C        -0.2540877842    0.6512754692   -0.0001686528
      5  C        -0.2307625517   -0.7532733411    0.0000664176
      6  C         0.9998044093   -1.4674028385   -0.0003564183
      7  N        -1.6002469785    1.0535909841    0.0004950240
      8  C        -1.5904623710   -1.1546555629    0.0002395943
      9  C        -2.4149717064    0.0257550217    0.0001202105
     10  H        -1.9304844895    2.0325766369   -0.0001173962
     11  H        -1.9725090897   -2.1697784269    0.0002267372
     12  H        -3.4928523979    0.1532519345    0.0000337231
     13  H         3.0790062528    1.2510058672    0.0007129784
     14  H         0.8807542857    2.5134259127    0.0004098098
     15  H         3.1603498314   -1.1934411736   -0.0002294614
     16  H         1.0203154618   -2.5541869496    0.0000300182
   Point Group: c1    Number of degrees of freedom:    42


   Energy is   -363.567478677

 Hessian updated using BFGS update

 41 Hessian modes will be used to form the next step
  Hessian Eigenvalues:
     0.018594    0.019738    0.020011    0.020794    0.021684    0.022200
     0.022636    0.023004    0.023236    0.023609    0.023851    0.023984
     0.024128    0.158424    0.160000    0.160000    0.160000    0.160125
     0.162175    0.211434    0.220707    0.239133    0.245775    0.251121
     0.357132    0.357297    0.357849    0.358111    0.364235    0.364747
     0.369778    0.387578    0.422678    0.431132    0.436204    0.461450
     0.468779    0.475357    0.478743    0.496244    1.159603

 Minimum search - taking simple RFO step
 Searching for Lamda that Minimizes Along All modes
 Value Taken    Lamda =  -0.00438791
 Step Taken.  Stepsize is  0.090611

                             Maximum     Tolerance    Cnvgd?
         Gradient           0.028652      0.000300      NO
         Displacement       0.037702      0.001200      NO
         Energy change     -0.000690      0.000001      NO


 New Cartesian Coordinates Obtained by Inverse Iteration

 Displacement from previous Coordinates is:  0.133766
 ----------------------------------------------------------------
             Standard Nuclear Orientation (Angstroms)
    I     Atom           X                Y                Z
 ----------------------------------------------------------------
    1      C       2.1730863568    -0.6936474634    -0.0000678185
    2      C       2.1333865229     0.6984595137     0.0001098419
    3      C       0.9113625191     1.4261870584    -0.0001273993
    4      C      -0.2469174843     0.6599584936    -0.0000637799
    5      C      -0.2364747468    -0.7533866619    -0.0000071055
    6      C       0.9897322683    -1.4557690779    -0.0000778411
    7      N      -1.5841639673     1.0623762539    -0.0000102608
    8      C      -1.5910278560    -1.1681032938    -0.0001358754
    9      C      -2.3909244250     0.0120538920     0.0003125407
   10      H      -1.9161800402     2.0404686954    -0.0002499400
   11      H      -1.9740918649    -2.1803102330    -0.0001184689
   12      H      -3.4679883220     0.1359677536     0.0006212394
   13      H       3.0646258380     1.2560166666     0.0003265342
   14      H       0.8913619110     2.5094645946     0.0002274061
   15      H       3.1337009165    -1.1972338823    -0.0001741047
   16      H       1.0136073251    -2.5399498168    -0.0000389870
 ----------------------------------------------------------------
 Molecular Point Group                 C1    NOp =  1
 Largest Abelian Subgroup              C1    NOp =  1
 Nuclear Repulsion Energy =         399.78559529 hartrees
 There are       31 alpha and       31 beta electrons
 Applying Cartesian multipole field
    Component          Value
    ---------          -----
     (2,0,0)        1.00000E-11
     (0,2,0)        2.00000E-11
     (0,0,2)       -3.00000E-11
 Nucleus-field energy     =     0.0000000118 hartrees
 Requested basis set is 6-31+G(d)
 There are 59 shells and 185 basis functions
 A cutoff of  1.0D-12 yielded   1657 shell pairs
 There are     17105 function pairs
 Smallest overlap matrix eigenvalue = 1.27E-06
 Guess MOs from SCF MO coefficient file

 -----------------------------------------------------------------------
  General SCF calculation program by
  Eric Jon Sundstrom, Paul Horn, Yuezhi Mao, Dmitri Zuev, Alec White,
  David Stuck, Shaama M.S., Shane Yost, Joonho Lee, David Small,
  Daniel Levine, Susi Lehtola, Hugh Burton, Evgeny Epifanovsky,
  Bang C. Huynh
 -----------------------------------------------------------------------
 Exchange:     0.2500 Hartree-Fock + 0.7500 mPW91
 Correlation:  1.0000 PW91
 Using SG-1 standard quadrature grid
 using 4 threads for integral computing
 -------------------------------------------------------
 OpenMP Integral computing Module                
 Release: version 1.0, May 2013, Q-Chem Inc. Pittsburgh 
 -------------------------------------------------------
 A restricted SCF calculation will be
 performed using DIIS
 SCF converges when DIIS error is below 1.0e-08
 ---------------------------------------
  Cycle       Energy         DIIS error
 ---------------------------------------
    1    -363.7386850203      4.32e-04  
    2    -363.7395795107      1.12e-04  
    3    -363.7395741856      1.15e-04  
    4    -363.7396309410      2.35e-05  
    5    -363.7396333748      7.82e-06  
    6    -363.7396336476      2.58e-06  
    7    -363.7396336772      6.31e-07  
    8    -363.7396336787      4.13e-07  
    9    -363.7396336795      6.32e-08  
   10    -363.7396336795      4.60e-08  
   11    -363.7396336795      8.94e-09  Convergence criterion met
 ---------------------------------------
 SCF time:   CPU 31.45s  wall 8.00s 
 SCF   energy in the final basis set =     -363.7396336795
 Total energy in the final basis set =     -363.7396336795
 
 Direct TDDFT/TDA calculation will be performed
 Exchange:     0.2500 Hartree-Fock + 0.7500 mPW91
 Correlation:  1.0000 PW91
 Using SG-1 standard quadrature grid
 Singlet excitation energies requested
 CIS energy converged when residual is below 10e- 6
 ---------------------------------------------------
 Iter    Rts Conv    Rts Left    Ttl Dev     Max Dev
 ---------------------------------------------------
   1         0           3      0.003707    0.001829
   2         0           3      0.001665    0.001192
   3         0           3      0.000473    0.000369
   4         0           3      0.000185    0.000147
   5         0           3      0.000062    0.000049
   6         1           2      0.000017    0.000014
   7         2           1      0.000007    0.000006
   8         2           1      0.000003    0.000002
   9         3           0      0.000002    0.000001    Roots Converged
 ---------------------------------------------------
 
 ---------------------------------------------------
         TDDFT/TDA Excitation Energies              
 ---------------------------------------------------

 Excited state   1: excitation energy (eV) =    4.6066
 Total energy for state  1:                  -363.57034583 au
    Multiplicity: Singlet
    Trans. Mom.: -0.0173 X   0.0138 Y  -0.1296 Z
    Strength   :     0.0019523621
    D(   31) --> V(    2) amplitude =  0.9952

 Excited state   2: excitation energy (eV) =    4.6073
 Total energy for state  2:                  -363.57031811 au
    Multiplicity: Singlet
    Trans. Mom.:  0.8516 X  -0.6810 Y  -0.0027 Z
    Strength   :     0.1342017344
    D(   31) --> V(    1) amplitude =  0.9209

 Excited state   3: excitation energy (eV) =    4.9808
 Total energy for state  3:                  -363.55659118 au
    Multiplicity: Singlet
    Trans. Mom.:  0.0461 X  -0.2213 Y   0.0000 Z
    Strength   :     0.0062347370
    D(   30) --> V(    1) amplitude =  0.7266
    D(   31) --> V(    4) amplitude = -0.6485
 
 ---------------------------------------------------
 Calculating Relaxed Density
 ---------------------------------------------------
 Iter    Rts Conv    Rts Left    Ttl Dev     Max Dev
 ---------------------------------------------------
   1         0           3      0.001654    0.000894
   2         0           3      0.000644    0.000297
   3         0           3      0.000153    0.000070
   4         0           3      0.000041    0.000020
   5         1           2      0.000008    0.000005
   6         1           2      0.000002    0.000001
   7         3           0      0.000000    0.000000    Roots Converged
 ---------------------------------------------------
  SETman timing summary (seconds)
  CPU time               116.20s
  System time              0.00s
  Wall time               29.21s
 
 --------------------------------------------------------------
 
                    Orbital Energies (a.u.)
 --------------------------------------------------------------
 
 Alpha MOs
 -- Occupied --
-14.4710 -10.2888 -10.2844 -10.2582 -10.2513 -10.2499 -10.2496 -10.2462
-10.2396  -1.0223  -0.8675  -0.8030  -0.7666  -0.7331  -0.6504  -0.6164
 -0.6000  -0.5606  -0.5009  -0.4892  -0.4561  -0.4490  -0.4438  -0.4193
 -0.4058  -0.3667  -0.3550  -0.3514  -0.2886  -0.2433  -0.2068
 -- Virtual --
 -0.0187  -0.0022   0.0202   0.0245   0.0264   0.0408   0.0421   0.0491
  0.0633   0.0644   0.0692   0.0707   0.0898   0.0922   0.1103   0.1112
  0.1167   0.1305   0.1380   0.1423   0.1571   0.1595   0.1704   0.1710
  0.1806   0.1850   0.1929   0.1933   0.2014   0.2060   0.2081   0.2098
  0.2251   0.2293   0.2388   0.2402   0.2451   0.2526   0.2599   0.2678
  0.2758   0.2792   0.2863   0.3030   0.3050   0.3137   0.3263   0.3433
  0.3595   0.3671   0.3819   0.4008   0.4383   0.4594   0.5242   0.5899
  0.6270   0.6846   0.6881   0.7129   0.7319   0.7368   0.7436   0.7496
  0.7521   0.7702   0.7779   0.7911   0.8073   0.8084   0.8270   0.8687
  0.9025   0.9113   0.9228   0.9562   0.9615   0.9705   0.9726   1.0011
  1.0171   1.0422   1.0617   1.0622   1.1017   1.1253   1.1326   1.1865
  1.1904   1.2188   1.2358   1.2461   1.2578   1.3266   1.3387   1.3576
  1.3776   1.4213   1.4221   1.4581   1.4787   1.4813   1.5049   1.5118
  1.5586   1.5941   1.6569   1.7914   1.8457   1.8983   1.9106   1.9267
  1.9489   2.0044   2.0097   2.0220   2.0656   2.0952   2.1529   2.1782
  2.1898   2.1989   2.2520   2.2599   2.2889   2.3086   2.3318   2.3915
  2.4232   2.4745   2.5462   2.5747   2.6455   2.6678   2.6725   2.6996
  2.7491   2.8202   2.8555   2.8667   2.9655   3.0001   3.1102   3.2592
  3.4440   4.1797   4.2798   4.3142   4.3413   4.3861   4.4261   4.5052
  4.5475   4.8092
 --------------------------------------------------------------
 
          Ground-State Mulliken Net Atomic Charges

     Atom                 Charge (a.u.)
  ----------------------------------------
      1 C                    -0.037249
      2 C                    -0.472606
      3 C                    -0.223233
      4 C                    -1.192964
      5 C                     1.617602
      6 C                    -0.685956
      7 N                    -0.403088
      8 C                    -0.107445
      9 C                    -0.197992
     10 H                     0.435519
     11 H                     0.214926
     12 H                     0.218097
     13 H                     0.204100
     14 H                     0.209284
     15 H                     0.205822
     16 H                     0.215182
  ----------------------------------------
  Sum of atomic charges =     0.000000

 -----------------------------------------------------------------
                    Cartesian Multipole Moments
 -----------------------------------------------------------------
    Charge (ESU x 10^10)
                -0.0000
    Dipole Moment (Debye)
         X      -1.5629      Y       1.8184      Z       0.0004
       Tot       2.3977
    Quadrupole Moments (Debye-Ang)
        XX     -44.5883     XY      -4.0552     YY     -43.7706
        XZ      -0.0003     YZ       0.0004     ZZ     -58.8748
    Octopole Moments (Debye-Ang^2)
       XXX     -15.7848    XXY       9.7950    XYY      -7.9791
       YYY      11.7046    XXZ       0.0064    XYZ       0.0038
       YYZ      -0.0006    XZZ      -2.0846    YZZ       2.4743
       ZZZ       0.0001
    Hexadecapole Moments (Debye-Ang^3)
      XXXX    -803.8309   XXXY     -23.7968   XXYY    -194.4198
      XYYY     -17.5337   YYYY    -364.3789   XXXZ      -0.0066
      XXYZ       0.0021   XYYZ       0.0120   YYYZ      -0.0023
      XXZZ    -189.3946   XYZZ      -3.0213   YYZZ     -94.0114
      XZZZ       0.0128   YZZZ      -0.0050   ZZZZ     -72.4585
 -----------------------------------------------------------------
 Calculating analytic gradient of the CIS energy
 CIS relaxed dipole moment
            1
    1  -1.9649526
    2   0.5617118
    3  -0.0195137
	Magnitude:	 2.044 au	 5.195 Debye
 CIS 2 State Energy is -363.5703181088
 Gradient of the state energy (including CIS Excitation Energy)
            1           2           3           4           5           6
    1  -0.0068082  -0.0055451  -0.0056664  -0.0007085  -0.0035886   0.0033131
    2  -0.0112565   0.0079739  -0.0188112   0.0237977  -0.0165859   0.0149593
    3   0.0000195  -0.0000054  -0.0001451   0.0001362  -0.0000584  -0.0001233
            7           8           9          10          11          12
    1   0.0058719   0.0044270   0.0206908  -0.0081547   0.0004120  -0.0025920
    2  -0.0222155  -0.0024207   0.0060280   0.0177892  -0.0011799   0.0026312
    3   0.0001833   0.0000195  -0.0000249  -0.0001465   0.0000070  -0.0000163
           13          14          15          16
    1  -0.0005129  -0.0008517  -0.0005231   0.0002365
    2  -0.0000798  -0.0005001  -0.0001264  -0.0000031
    3   0.0000073   0.0000790   0.0000138   0.0000541
 Gradient time:  CPU 21.31 s  wall 5.36 s
 Geometry Optimization Parameters
   NAtoms,    NIC,     NZ,  NCons,   NDum,   NFix, NCnnct, MaxDiis
       16     116       0       0       0       0       0       0

 Cartesian Hessian Update
 Hessian updated using BFGS update


** GEOMETRY OPTIMIZATION IN DELOCALIZED INTERNAL COORDINATES **
   Searching for a Minimum

   Optimization Cycle:   4

                       Coordinates (Angstroms)
     ATOM                X               Y               Z
      1  C         2.1730863568   -0.6936474634   -0.0000678185
      2  C         2.1333865229    0.6984595137    0.0001098419
      3  C         0.9113625191    1.4261870584   -0.0001273993
      4  C        -0.2469174843    0.6599584936   -0.0000637799
      5  C        -0.2364747468   -0.7533866619   -0.0000071055
      6  C         0.9897322683   -1.4557690779   -0.0000778411
      7  N        -1.5841639673    1.0623762539   -0.0000102608
      8  C        -1.5910278560   -1.1681032938   -0.0001358754
      9  C        -2.3909244250    0.0120538920    0.0003125407
     10  H        -1.9161800402    2.0404686954   -0.0002499400
     11  H        -1.9740918649   -2.1803102330   -0.0001184689
     12  H        -3.4679883220    0.1359677536    0.0006212394
     13  H         3.0646258380    1.2560166666    0.0003265342
     14  H         0.8913619110    2.5094645946    0.0002274061
     15  H         3.1337009165   -1.1972338823   -0.0001741047
     16  H         1.0136073251   -2.5399498168   -0.0000389870
   Point Group: c1    Number of degrees of freedom:    42


   Energy is   -363.570318109

 Hessian updated using BFGS update

 41 Hessian modes will be used to form the next step
  Hessian Eigenvalues:
     0.018593    0.019738    0.020011    0.020794    0.021683    0.022200
     0.022636    0.023004    0.023236    0.023608    0.023850    0.023984
     0.024127    0.158383    0.159572    0.160000    0.160000    0.160099
     0.161173    0.211714    0.220275    0.239099    0.244446    0.252617
     0.353043    0.357137    0.357645    0.357912    0.360808    0.364269
     0.370548    0.378301    0.390095    0.426940    0.437782    0.460158
     0.468837    0.475440    0.482469    0.488444    1.897189

 Minimum search - taking simple RFO step
 Searching for Lamda that Minimizes Along All modes
 Value Taken    Lamda =  -0.00093332
 Step Taken.  Stepsize is  0.028457

                             Maximum     Tolerance    Cnvgd?
         Gradient           0.018685      0.000300      NO
         Displacement       0.014267      0.001200      NO
         Energy change     -0.002839      0.000001      NO


 New Cartesian Coordinates Obtained by Inverse Iteration

 Displacement from previous Coordinates is:  0.032677
 ----------------------------------------------------------------
             Standard Nuclear Orientation (Angstroms)
    I     Atom           X                Y                Z
 ----------------------------------------------------------------
    1      C       2.1714095490    -0.6916625830     0.0002431655
    2      C       2.1333765771     0.6991209398     0.0002293275
    3      C       0.9134081181     1.4304364048     0.0000025692
    4      C      -0.2445215778     0.6579536551    -0.0005417771
    5      C      -0.2358104551    -0.7508893828     0.0000563196
    6      C       0.9890834207    -1.4572127857     0.0006771480
    7      N      -1.5842968878     1.0619077503    -0.0002554118
    8      C      -1.5935947978    -1.1665521398    -0.0006256763
    9      C      -2.3958652428     0.0104874501    -0.0000975262
   10      H      -1.9077709131     2.0362268667     0.0014941216
   11      H      -1.9770088905    -2.1777139840    -0.0006000892
   12      H      -3.4719065062     0.1286020916     0.0006201331
   13      H       3.0657806198     1.2545372261    -0.0000173708
   14      H       0.8948269720     2.5129555058    -0.0007156475
   15      H       3.1323782206    -1.1949525272    -0.0001945508
   16      H       1.0136067452    -2.5406919952     0.0002512464
 ----------------------------------------------------------------
 Molecular Point Group                 C1    NOp =  1
 Largest Abelian Subgroup              C1    NOp =  1
 Nuclear Repulsion Energy =         399.66234454 hartrees
 There are       31 alpha and       31 beta electrons
 Applying Cartesian multipole field
    Component          Value
    ---------          -----
     (2,0,0)        1.00000E-11
     (0,2,0)        2.00000E-11
     (0,0,2)       -3.00000E-11
 Nucleus-field energy     =     0.0000000118 hartrees
 Requested basis set is 6-31+G(d)
 There are 59 shells and 185 basis functions
 A cutoff of  1.0D-12 yielded   1657 shell pairs
 There are     17105 function pairs
 Smallest overlap matrix eigenvalue = 1.28E-06
 Guess MOs from SCF MO coefficient file

 -----------------------------------------------------------------------
  General SCF calculation program by
  Eric Jon Sundstrom, Paul Horn, Yuezhi Mao, Dmitri Zuev, Alec White,
  David Stuck, Shaama M.S., Shane Yost, Joonho Lee, David Small,
  Daniel Levine, Susi Lehtola, Hugh Burton, Evgeny Epifanovsky,
  Bang C. Huynh
 -----------------------------------------------------------------------
 Exchange:     0.2500 Hartree-Fock + 0.7500 mPW91
 Correlation:  1.0000 PW91
 Using SG-1 standard quadrature grid
 using 4 threads for integral computing
 -------------------------------------------------------
 OpenMP Integral computing Module                
 Release: version 1.0, May 2013, Q-Chem Inc. Pittsburgh 
 -------------------------------------------------------
 A restricted SCF calculation will be
 performed using DIIS
 SCF converges when DIIS error is below 1.0e-08
 ---------------------------------------
  Cycle       Energy         DIIS error
 ---------------------------------------
    1    -363.7398891100      1.32e-04  
    2    -363.7399731133      2.41e-05  
    3    -363.7399731190      2.49e-05  
    4    -363.7399753612      7.39e-06  
    5    -363.7399755421      2.69e-06  
    6    -363.7399755744      6.59e-07  
    7    -363.7399755764      2.30e-07  
    8    -363.7399755766      7.22e-08  
    9    -363.7399755766      2.69e-08  
   10    -363.7399755766      7.70e-09  Convergence criterion met
 ---------------------------------------
 SCF time:   CPU 28.61s  wall 8.00s 
 SCF   energy in the final basis set =     -363.7399755766
 Total energy in the final basis set =     -363.7399755766
 
 Direct TDDFT/TDA calculation will be performed
 Exchange:     0.2500 Hartree-Fock + 0.7500 mPW91
 Correlation:  1.0000 PW91
 Using SG-1 standard quadrature grid
 Singlet excitation energies requested
 CIS energy converged when residual is below 10e- 6
 ---------------------------------------------------
 Iter    Rts Conv    Rts Left    Ttl Dev     Max Dev
 ---------------------------------------------------
   1         0           3      0.003699    0.001823
   2         0           3      0.001759    0.001168
   3         0           3      0.000466    0.000363
   4         0           3      0.000185    0.000147
   5         0           3      0.000062    0.000048
   6         1           2      0.000017    0.000014
   7         2           1      0.000007    0.000005
   8         2           1      0.000003    0.000002
   9         3           0      0.000002    0.000001    Roots Converged
 ---------------------------------------------------
 
 ---------------------------------------------------
         TDDFT/TDA Excitation Energies              
 ---------------------------------------------------

 Excited state   1: excitation energy (eV) =    4.5941
 Total energy for state  1:                  -363.57114411 au
    Multiplicity: Singlet
    Trans. Mom.:  0.8303 X  -0.6821 Y  -0.0018 Z
    Strength   :     0.1299559162
    D(   31) --> V(    1) amplitude =  0.9226

 Excited state   2: excitation energy (eV) =    4.6367
 Total energy for state  2:                  -363.56957894 au
    Multiplicity: Singlet
    Trans. Mom.:  0.0134 X  -0.0104 Y   0.1316 Z
    Strength   :     0.0020000239
    D(   31) --> V(    2) amplitude =  0.9952

 Excited state   3: excitation energy (eV) =    4.9808
 Total energy for state  3:                  -363.55693493 au
    Multiplicity: Singlet
    Trans. Mom.: -0.0118 X   0.2252 Y  -0.0000 Z
    Strength   :     0.0062035868
    D(   30) --> V(    1) amplitude =  0.7315
    D(   31) --> V(    4) amplitude = -0.6430
 
 ---------------------------------------------------
 Calculating Relaxed Density
 ---------------------------------------------------
 Iter    Rts Conv    Rts Left    Ttl Dev     Max Dev
 ---------------------------------------------------
   1         0           3      0.001665    0.000903
   2         0           3      0.000651    0.000302
   3         0           3      0.000155    0.000071
   4         0           3      0.000041    0.000020
   5         1           2      0.000008    0.000005
   6         1           2      0.000003    0.000002
   7         3           0      0.000000    0.000000    Roots Converged
 ---------------------------------------------------
  SETman timing summary (seconds)
  CPU time               115.78s
  System time              0.00s
  Wall time               29.10s
 
 --------------------------------------------------------------
 
                    Orbital Energies (a.u.)
 --------------------------------------------------------------
 
 Alpha MOs
 -- Occupied --
-14.4698 -10.2887 -10.2847 -10.2588 -10.2519 -10.2500 -10.2498 -10.2463
-10.2396  -1.0207  -0.8677  -0.8029  -0.7663  -0.7336  -0.6503  -0.6164
 -0.5998  -0.5609  -0.5008  -0.4895  -0.4560  -0.4494  -0.4428  -0.4194
 -0.4059  -0.3662  -0.3560  -0.3514  -0.2882  -0.2434  -0.2072
 -- Virtual --
 -0.0193  -0.0014   0.0201   0.0245   0.0263   0.0408   0.0420   0.0488
  0.0633   0.0644   0.0693   0.0708   0.0896   0.0921   0.1102   0.1112
  0.1168   0.1305   0.1379   0.1427   0.1575   0.1592   0.1706   0.1709
  0.1810   0.1848   0.1929   0.1934   0.2017   0.2058   0.2081   0.2099
  0.2252   0.2291   0.2390   0.2399   0.2450   0.2524   0.2600   0.2678
  0.2758   0.2793   0.2862   0.3026   0.3055   0.3137   0.3261   0.3432
  0.3590   0.3664   0.3814   0.4006   0.4382   0.4593   0.5229   0.5906
  0.6265   0.6840   0.6880   0.7131   0.7315   0.7369   0.7432   0.7494
  0.7521   0.7701   0.7767   0.7907   0.8072   0.8075   0.8261   0.8685
  0.9029   0.9111   0.9226   0.9558   0.9617   0.9700   0.9728   1.0006
  1.0172   1.0430   1.0615   1.0657   1.1015   1.1259   1.1338   1.1861
  1.1903   1.2191   1.2359   1.2462   1.2581   1.3270   1.3369   1.3573
  1.3768   1.4192   1.4209   1.4564   1.4795   1.4812   1.5040   1.5113
  1.5582   1.5943   1.6543   1.7947   1.8456   1.8966   1.9100   1.9261
  1.9481   2.0063   2.0098   2.0219   2.0643   2.0945   2.1535   2.1797
  2.1881   2.2023   2.2508   2.2591   2.2884   2.3052   2.3299   2.3905
  2.4197   2.4743   2.5449   2.5725   2.6430   2.6682   2.6715   2.6985
  2.7507   2.8190   2.8545   2.8660   2.9643   3.0002   3.1087   3.2571
  3.4430   4.1787   4.2796   4.3141   4.3419   4.3853   4.4258   4.5046
  4.5475   4.8083
 --------------------------------------------------------------
 
          Ground-State Mulliken Net Atomic Charges

     Atom                 Charge (a.u.)
  ----------------------------------------
      1 C                    -0.040497
      2 C                    -0.462900
      3 C                    -0.242525
      4 C                    -1.198783
      5 C                     1.636778
      6 C                    -0.679130
      7 N                    -0.409215
      8 C                    -0.113178
      9 C                    -0.194973
     10 H                     0.435471
     11 H                     0.214722
     12 H                     0.218722
     13 H                     0.204124
     14 H                     0.210061
     15 H                     0.205599
     16 H                     0.215724
  ----------------------------------------
  Sum of atomic charges =     0.000000

 -----------------------------------------------------------------
                    Cartesian Multipole Moments
 -----------------------------------------------------------------
    Charge (ESU x 10^10)
                -0.0000
    Dipole Moment (Debye)
         X      -1.5290      Y       1.7956      Z       0.0019
       Tot       2.3584
    Quadrupole Moments (Debye-Ang)
        XX     -44.5907     XY      -3.9598     YY     -43.7681
        XZ      -0.0116     YZ       0.0059     ZZ     -58.8780
    Octopole Moments (Debye-Ang^2)
       XXX     -15.8160    XXY       9.5755    XYY      -7.7210
       YYY      11.5806    XXZ       0.0152    XYZ      -0.0139
       YYZ       0.0070    XZZ      -2.0242    YZZ       2.4367
       ZZZ       0.0040
    Hexadecapole Moments (Debye-Ang^3)
      XXXX    -803.8900   XXXY     -23.3905   XXYY    -194.9338
      XYYY     -17.6137   YYYY    -364.0877   XXXZ      -0.1333
      XXYZ       0.0368   XYYZ      -0.0515   YYYZ       0.0351
      XXZZ    -189.5302   XYZZ      -3.1604   YYZZ     -94.0028
      XZZZ      -0.0632   YZZZ       0.0147   ZZZZ     -72.4679
 -----------------------------------------------------------------
 Calculating analytic gradient of the CIS energy
 CIS relaxed dipole moment
            1
    1   2.4597214
    2  -2.7155542
    3   0.0139473
	Magnitude:	 3.664 au	 9.313 Debye
 CIS 2 State Energy is -363.5695789424
 Gradient of the state energy (including CIS Excitation Energy)
            1           2           3           4           5           6
    1   0.0077829   0.0066675   0.0049015  -0.0008043   0.0037811  -0.0053927
    2   0.0120141  -0.0081694   0.0183562  -0.0199215   0.0138494  -0.0146324
    3  -0.0000580   0.0000377   0.0001900  -0.0002809   0.0001567   0.0002233
            7           8           9          10          11          12
    1  -0.0002072  -0.0045886  -0.0217956   0.0069885  -0.0002650   0.0021519
    2   0.0228657   0.0001666  -0.0086914  -0.0156759   0.0006134  -0.0019757
    3  -0.0001544  -0.0001562   0.0000969   0.0001274   0.0000041   0.0000233
           13          14          15          16
    1   0.0002305   0.0008421   0.0001814  -0.0004739
    2   0.0003190   0.0007841   0.0001628  -0.0000651
    3  -0.0000084  -0.0000913  -0.0000371  -0.0000730
 Gradient time:  CPU 21.32 s  wall 5.36 s
 Geometry Optimization Parameters
   NAtoms,    NIC,     NZ,  NCons,   NDum,   NFix, NCnnct, MaxDiis
       16     116       0       0       0       0       0       0

 Cartesian Hessian Update
 Hessian updated using BFGS update


** GEOMETRY OPTIMIZATION IN DELOCALIZED INTERNAL COORDINATES **
   Searching for a Minimum

   Optimization Cycle:   5

                       Coordinates (Angstroms)
     ATOM                X               Y               Z
      1  C         2.1714095490   -0.6916625830    0.0002431655
      2  C         2.1333765771    0.6991209398    0.0002293275
      3  C         0.9134081181    1.4304364048    0.0000025692
      4  C        -0.2445215778    0.6579536551   -0.0005417771
      5  C        -0.2358104551   -0.7508893828    0.0000563196
      6  C         0.9890834207   -1.4572127857    0.0006771480
      7  N        -1.5842968878    1.0619077503   -0.0002554118
      8  C        -1.5935947978   -1.1665521398   -0.0006256763
      9  C        -2.3958652428    0.0104874501   -0.0000975262
     10  H        -1.9077709131    2.0362268667    0.0014941216
     11  H        -1.9770088905   -2.1777139840   -0.0006000892
     12  H        -3.4719065062    0.1286020916    0.0006201331
     13  H         3.0657806198    1.2545372261   -0.0000173708
     14  H         0.8948269720    2.5129555058   -0.0007156475
     15  H         3.1323782206   -1.1949525272   -0.0001945508
     16  H         1.0136067452   -2.5406919952    0.0002512464
   Point Group: c1    Number of degrees of freedom:    42


   Energy is   -363.569578942

 Hessian updated using BFGS update

 42 Hessian modes will be used to form the next step
  Hessian Eigenvalues:
     0.018598    0.019739    0.020011    0.020796    0.021686    0.022201
     0.022636    0.023005    0.023237    0.023611    0.023853    0.023984
     0.024128    0.158449    0.159393    0.160000    0.160000    0.160019
     0.160115    0.161206    0.214259    0.220524    0.238774    0.244202
     0.251821    0.354971    0.357140    0.357650    0.357893    0.361185
     0.364260    0.370269    0.383221    0.390456    0.426647    0.438753
     0.460983    0.468837    0.472642    0.475869    0.489257    3.604162

 Minimum search - taking simple RFO step
 Searching for Lamda that Minimizes Along All modes
 Value Taken    Lamda =  -0.00044358
 Step Taken.  Stepsize is  0.015215

                             Maximum     Tolerance    Cnvgd?
         Gradient           0.017890      0.000300      NO
         Displacement       0.007586      0.001200      NO
         Energy change      0.000739      0.000001      NO


 New Cartesian Coordinates Obtained by Inverse Iteration

 Displacement from previous Coordinates is:  0.019731
 ----------------------------------------------------------------
             Standard Nuclear Orientation (Angstroms)
    I     Atom           X                Y                Z
 ----------------------------------------------------------------
    1      C       2.1724447706    -0.6932563937    -0.0000367076
    2      C       2.1323991424     0.6981779200     0.0001005873
    3      C       0.9118144615     1.4274177870     0.0000731418
    4      C      -0.2459941321     0.6580369305     0.0000366234
    5      C      -0.2353046326    -0.7514883929    -0.0000515265
    6      C       0.9906598543    -1.4566513920    -0.0001682111
    7      N      -1.5857748910     1.0616188000    -0.0001126275
    8      C      -1.5916900302    -1.1646487740     0.0001804040
    9      C      -2.3935362953     0.0126410755    -0.0000600420
   10      H      -1.9123844221     2.0372006068     0.0003181645
[...]
 CIS 2 State Energy is -363.5646954667
 Gradient of the state energy (including CIS Excitation Energy)
            1           2           3           4           5           6
    1   0.0133519   0.0118473   0.0074956  -0.0000265   0.0061371  -0.0074192
    2   0.0211614  -0.0154519   0.0335342  -0.0403663   0.0280997  -0.0272176
    3   0.0000066   0.0000063  -0.0000192   0.0001393  -0.0000006  -0.0000211
            7           8           9          10          11          12
    1  -0.0064111  -0.0062126  -0.0354467   0.0115029  -0.0006312   0.0037339
    2   0.0354498   0.0024295  -0.0090721  -0.0279325   0.0010456  -0.0034376
    3  -0.0001758  -0.0001559   0.0002188  -0.0000308   0.0000069   0.0000102
           13          14          15          16
    1   0.0008199   0.0013506   0.0006002  -0.0006920
    2   0.0004305   0.0013681   0.0002877  -0.0003285
    3  -0.0000015   0.0000081  -0.0000008   0.0000094
 Gradient time:  CPU 21.00 s  wall 5.28 s
 Geometry Optimization Parameters
   NAtoms,    NIC,     NZ,  NCons,   NDum,   NFix, NCnnct, MaxDiis
       16     116       0       0       0       0       0       0

 Cartesian Hessian Update
 Hessian updated using BFGS update


** GEOMETRY OPTIMIZATION IN DELOCALIZED INTERNAL COORDINATES **
   Searching for a Minimum

   Optimization Cycle:  49

                       Coordinates (Angstroms)
     ATOM                X               Y               Z
      1  C         2.1762604243   -0.6848592864    0.0000451787
      2  C         2.1416336219    0.7013247184    0.0002279418
      3  C         0.9192108241    1.4468237205    0.0001567590
      4  C        -0.2390467159    0.6468887211    0.0001497984
      5  C        -0.2326852017   -0.7459644620   -0.0001825513
      6  C         0.9884573681   -1.4693875605   -0.0003223452
      7  N        -1.5899761358    1.0560677347   -0.0004207363
      8  C        -1.6051319936   -1.1575059377   -0.0002757642
      9  C        -2.4187530165    0.0100369356    0.0008762718
     10  H        -1.8859570058    2.0177363426   -0.0013547409
     11  H        -1.9865204211   -2.1693731550   -0.0002148598
     12  H        -3.4924733578    0.1175153453    0.0014739760
     13  H         3.0784470441    1.2510783611    0.0003746886
     14  H         0.8980198421    2.5296658315    0.0003113663
     15  H         3.1397189438   -1.1849895397    0.0001047699
     16  H         1.0118907311   -2.5525052768   -0.0004237715
   Point Group: c1    Number of degrees of freedom:    42


   Energy is   -363.564695467

 Hessian updated using BFGS update

 42 Hessian modes will be used to form the next step
  Hessian Eigenvalues:
     0.018710    0.020003    0.020160    0.020877    0.022265    0.022643
     0.022992    0.023248    0.023653    0.023920    0.023990    0.024127
     0.026468    0.159237    0.159290    0.159999    0.160005    0.160038
     0.160759    0.161598    0.219905    0.234504    0.240768    0.247724
     0.260746    0.356219    0.357140    0.357839    0.358476    0.362139
     0.364242    0.376406    0.385666    0.400370    0.427112    0.449900
     0.459591    0.471926    0.479635    0.515542    0.776893    1.032312

 Minimum search - taking simple RFO step
 Searching for Lamda that Minimizes Along All modes
 Value Taken    Lamda =  -0.00514230
 Step Taken.  Stepsize is  0.083078

                             Maximum     Tolerance    Cnvgd?
         Gradient           0.032359      0.000300      NO
         Displacement       0.046124      0.001200      NO
         Energy change      0.005184      0.000001      NO


 New Cartesian Coordinates Obtained by Inverse Iteration

 Displacement from previous Coordinates is:  0.093733
 ----------------------------------------------------------------
             Standard Nuclear Orientation (Angstroms)
    I     Atom           X                Y                Z
 ----------------------------------------------------------------
    1      C       2.1733228710    -0.6910163099    -0.0000949838
    2      C       2.1348630388     0.6995105898    -0.0000361552
    3      C       0.9142452731     1.4327869249     0.0000927755
    4      C      -0.2440277143     0.6553308854     0.0001381764
    5      C      -0.2350609729    -0.7504174044     0.0000109050
    6      C       0.9897333176    -1.4599164813    -0.0001520709
    7      N      -1.5867737973     1.0606518406     0.0002230265
    8      C      -1.5958105281    -1.1630386541     0.0001788135
    9      C      -2.4000669189     0.0115673358     0.0000273555
   10      H      -1.9037976578     2.0326350257    -0.0000464766
   11      H      -1.9798406674    -2.1740947184     0.0002047554
   12      H      -3.4760251189     0.1257796190    -0.0000614336
   13      H       3.0685927797     1.2533727196    -0.0000019037
   14      H       0.8940884789     2.5156234197     0.0002589168
   15      H       3.1354681898    -1.1926779135    -0.0000863426
   16      H       1.0141843779    -2.5435443864    -0.0001293770
 ----------------------------------------------------------------
 Molecular Point Group                 C1    NOp =  1
 Largest Abelian Subgroup              C1    NOp =  1
 Nuclear Repulsion Energy =         399.44840449 hartrees
 There are       31 alpha and       31 beta electrons
 Applying Cartesian multipole field
    Component          Value
    ---------          -----
     (2,0,0)        1.00000E-11
     (0,2,0)        2.00000E-11
     (0,0,2)       -3.00000E-11
 Nucleus-field energy     =     0.0000000118 hartrees
 Requested basis set is 6-31+G(d)
 There are 59 shells and 185 basis functions
 A cutoff of  1.0D-12 yielded   1657 shell pairs
 There are     17105 function pairs
 Smallest overlap matrix eigenvalue = 1.29E-06
 Guess MOs from SCF MO coefficient file

 -----------------------------------------------------------------------
  General SCF calculation program by
  Eric Jon Sundstrom, Paul Horn, Yuezhi Mao, Dmitri Zuev, Alec White,
  David Stuck, Shaama M.S., Shane Yost, Joonho Lee, David Small,
  Daniel Levine, Susi Lehtola, Hugh Burton, Evgeny Epifanovsky,
  Bang C. Huynh
 -----------------------------------------------------------------------
 Exchange:     0.2500 Hartree-Fock + 0.7500 mPW91
 Correlation:  1.0000 PW91
 Using SG-1 standard quadrature grid
 using 4 threads for integral computing
 -------------------------------------------------------
 OpenMP Integral computing Module                
 Release: version 1.0, May 2013, Q-Chem Inc. Pittsburgh 
 -------------------------------------------------------
 A restricted SCF calculation will be
 performed using DIIS
 SCF converges when DIIS error is below 1.0e-08
 ---------------------------------------
  Cycle       Energy         DIIS error
 ---------------------------------------
    1    -363.7387211620      4.21e-04  
    2    -363.7395178676      8.70e-05  
    3    -363.7395087561      9.98e-05  
    4    -363.7395482202      2.12e-05  
    5    -363.7395497156      8.68e-06  
    6    -363.7395500360      2.33e-06  
    7    -363.7395500604      7.44e-07  
    8    -363.7395500629      3.11e-07  
    9    -363.7395500633      6.61e-08  
   10    -363.7395500634      2.94e-08  
   11    -363.7395500634      1.22e-08  
   12    -363.7395500634      3.36e-09  Convergence criterion met
 ---------------------------------------
 SCF time:   CPU 34.50s  wall 9.00s 
 SCF   energy in the final basis set =     -363.7395500634
 Total energy in the final basis set =     -363.7395500634
 
 Direct TDDFT/TDA calculation will be performed
 Exchange:     0.2500 Hartree-Fock + 0.7500 mPW91
 Correlation:  1.0000 PW91
 Using SG-1 standard quadrature grid
 Singlet excitation energies requested
 CIS energy converged when residual is below 10e- 6
 ---------------------------------------------------
 Iter    Rts Conv    Rts Left    Ttl Dev     Max Dev
 ---------------------------------------------------
   1         0           3      0.003694    0.001817
   2         0           3      0.001640    0.001186
   3         0           3      0.000471    0.000371
   4         0           3      0.000186    0.000149
   5         0           3      0.000062    0.000049
   6         1           2      0.000017    0.000014
   7         2           1      0.000007    0.000006
   8         2           1      0.000003    0.000002
   9         3           0      0.000002    0.000001    Roots Converged
 ---------------------------------------------------
 
 ---------------------------------------------------
         TDDFT/TDA Excitation Energies              
 ---------------------------------------------------

 Excited state   1: excitation energy (eV) =    4.5683
 Total energy for state  1:                  -363.57166858 au
    Multiplicity: Singlet
    Trans. Mom.:  0.8142 X  -0.6837 Y   0.0002 Z
    Strength   :     0.1265022195
    D(   31) --> V(    1) amplitude =  0.9238

 Excited state   2: excitation energy (eV) =    4.6435
 Total energy for state  2:                  -363.56890491 au
    Multiplicity: Singlet
    Trans. Mom.:  0.0015 X  -0.0011 Y  -0.1318 Z
    Strength   :     0.0019774986
    D(   31) --> V(    2) amplitude =  0.9953

 Excited state   3: excitation energy (eV) =    4.9761
 Total energy for state  3:                  -363.55668211 au
    Multiplicity: Singlet
    Trans. Mom.: -0.0105 X   0.2269 Y   0.0000 Z
    Strength   :     0.0062908493
    D(   30) --> V(    1) amplitude =  0.7309
    D(   31) --> V(    4) amplitude = -0.6427
 
 ---------------------------------------------------
 Calculating Relaxed Density
 ---------------------------------------------------
 Iter    Rts Conv    Rts Left    Ttl Dev     Max Dev
 ---------------------------------------------------
   1         0           3      0.001671    0.000904
   2         0           3      0.000656    0.000302
   3         0           3      0.000155    0.000072
   4         0           3      0.000041    0.000020
   5         1           2      0.000009    0.000005
   6         1           2      0.000003    0.000002
   7         3           0      0.000000    0.000000    Roots Converged
 ---------------------------------------------------
  SETman timing summary (seconds)
  CPU time               116.24s
  System time              0.00s
  Wall time               29.27s
 
 --------------------------------------------------------------
 
                    Orbital Energies (a.u.)
 --------------------------------------------------------------
 
 Alpha MOs
 -- Occupied --
-14.4692 -10.2886 -10.2851 -10.2597 -10.2527 -10.2503 -10.2503 -10.2470
-10.2394  -1.0204  -0.8675  -0.8026  -0.7662  -0.7337  -0.6504  -0.6164
 -0.5996  -0.5611  -0.5008  -0.4898  -0.4559  -0.4495  -0.4425  -0.4189
 -0.4061  -0.3664  -0.3563  -0.3513  -0.2876  -0.2437  -0.2071
 -- Virtual --
 -0.0199  -0.0011   0.0201   0.0243   0.0263   0.0407   0.0420   0.0488
  0.0633   0.0644   0.0693   0.0708   0.0896   0.0921   0.1101   0.1111
  0.1168   0.1305   0.1379   0.1430   0.1575   0.1591   0.1706   0.1708
  0.1812   0.1845   0.1928   0.1934   0.2018   0.2053   0.2079   0.2099
  0.2252   0.2288   0.2389   0.2398   0.2448   0.2521   0.2600   0.2679
  0.2757   0.2793   0.2861   0.3018   0.3056   0.3133   0.3260   0.3430
  0.3587   0.3657   0.3805   0.4002   0.4379   0.4589   0.5226   0.5901
  0.6253   0.6836   0.6879   0.7130   0.7314   0.7370   0.7432   0.7493
  0.7513   0.7701   0.7760   0.7904   0.8069   0.8070   0.8253   0.8682
  0.9032   0.9108   0.9220   0.9556   0.9617   0.9698   0.9727   1.0004
  1.0167   1.0434   1.0612   1.0678   1.1016   1.1261   1.1343   1.1856
  1.1899   1.2192   1.2361   1.2462   1.2583   1.3272   1.3356   1.3571
  1.3758   1.4170   1.4200   1.4554   1.4801   1.4820   1.5031   1.5109
  1.5577   1.5940   1.6518   1.7967   1.8443   1.8943   1.9096   1.9242
  1.9473   2.0075   2.0091   2.0208   2.0622   2.0929   2.1516   2.1798
  2.1877   2.2052   2.2483   2.2587   2.2888   2.3038   2.3285   2.3893
  2.4173   2.4741   2.5426   2.5714   2.6408   2.6680   2.6691   2.6966
  2.7512   2.8177   2.8530   2.8646   2.9637   2.9989   3.1080   3.2554
  3.4391   4.1788   4.2782   4.3134   4.3418   4.3849   4.4258   4.5038
  4.5472   4.8071
 --------------------------------------------------------------
 
          Ground-State Mulliken Net Atomic Charges

     Atom                 Charge (a.u.)
  ----------------------------------------
      1 C                    -0.044282
      2 C                    -0.455882
      3 C                    -0.261295
      4 C                    -1.202852
      5 C                     1.653511
      6 C                    -0.666328
      7 N                    -0.411379
      8 C                    -0.127169
      9 C                    -0.189943
     10 H                     0.435428
     11 H                     0.214232
     12 H                     0.219325
     13 H                     0.204237
     14 H                     0.210490
     15 H                     0.205696
     16 H                     0.216210
  ----------------------------------------
  Sum of atomic charges =     0.000000

 -----------------------------------------------------------------
                    Cartesian Multipole Moments
 -----------------------------------------------------------------
    Charge (ESU x 10^10)
                -0.0000
    Dipole Moment (Debye)
         X      -1.5093      Y       1.7920      Z      -0.0002
       Tot       2.3429
    Quadrupole Moments (Debye-Ang)
        XX     -44.5555     XY      -3.9419     YY     -43.7951
        XZ       0.0014     YZ      -0.0004     ZZ     -58.8959
    Octopole Moments (Debye-Ang^2)
       XXX     -15.8521    XXY       9.5036    XYY      -7.5504
       YYY      11.5578    XXZ      -0.0044    XYZ       0.0023
       YYZ      -0.0016    XZZ      -2.0261    YZZ       2.4350
       ZZZ      -0.0069
    Hexadecapole Moments (Debye-Ang^3)
      XXXX    -804.4410   XXXY     -23.1589   XXYY    -195.5895
      XYYY     -17.5659   YYYY    -364.0368   XXXZ       0.0275
      XXYZ      -0.0062   XYYZ       0.0088   YYYZ      -0.0088
      XXZZ    -189.8865   XYZZ      -3.1688   YYZZ     -94.0384
      XZZZ       0.0217   YZZZ      -0.0106   ZZZZ     -72.5255
 -----------------------------------------------------------------
 Calculating analytic gradient of the CIS energy
 CIS relaxed dipole moment
            1
    1   2.4521821
    2  -2.7124280
    3  -0.0014026
	Magnitude:	 3.657 au	 9.294 Debye
 CIS 2 State Energy is -363.5689049105
 Gradient of the state energy (including CIS Excitation Energy)
            1           2           3           4           5           6
    1   0.0092840   0.0074341   0.0056846  -0.0009472   0.0042103  -0.0057987
    2   0.0132806  -0.0090652   0.0208671  -0.0239859   0.0160394  -0.0169058
    3   0.0000108  -0.0000089  -0.0000182   0.0000221  -0.0000213  -0.0000332
            7           8           9          10          11          12
    1  -0.0031535  -0.0048963  -0.0230531   0.0079391  -0.0003602   0.0023584
    2   0.0239904   0.0020125  -0.0078053  -0.0180214   0.0006488  -0.0023440
    3   0.0000414   0.0000388  -0.0000438  -0.0000143   0.0000003  -0.0000001
           13          14          15          16
    1   0.0005212   0.0008267   0.0004235  -0.0004726
    2   0.0002711   0.0010695   0.0002144  -0.0002662
    3   0.0000013   0.0000107   0.0000052   0.0000091
 Gradient time:  CPU 21.14 s  wall 5.32 s
 Geometry Optimization Parameters
   NAtoms,    NIC,     NZ,  NCons,   NDum,   NFix, NCnnct, MaxDiis
       16     116       0       0       0       0       0       0

 Cartesian Hessian Update
 Hessian updated using BFGS update


** GEOMETRY OPTIMIZATION IN DELOCALIZED INTERNAL COORDINATES **
   Searching for a Minimum

   Optimization Cycle:  50

                       Coordinates (Angstroms)
     ATOM                X               Y               Z
      1  C         2.1733228710   -0.6910163099   -0.0000949838
      2  C         2.1348630388    0.6995105898   -0.0000361552
      3  C         0.9142452731    1.4327869249    0.0000927755
      4  C        -0.2440277143    0.6553308854    0.0001381764
      5  C        -0.2350609729   -0.7504174044    0.0000109050
      6  C         0.9897333176   -1.4599164813   -0.0001520709
      7  N        -1.5867737973    1.0606518406    0.0002230265
      8  C        -1.5958105281   -1.1630386541    0.0001788135
      9  C        -2.4000669189    0.0115673358    0.0000273555
     10  H        -1.9037976578    2.0326350257   -0.0000464766
     11  H        -1.9798406674   -2.1740947184    0.0002047554
     12  H        -3.4760251189    0.1257796190   -0.0000614336
     13  H         3.0685927797    1.2533727196   -0.0000019037
     14  H         0.8940884789    2.5156234197    0.0002589168
     15  H         3.1354681898   -1.1926779135   -0.0000863426
     16  H         1.0141843779   -2.5435443864   -0.0001293770
   Point Group: c1    Number of degrees of freedom:    42


   Energy is   -363.568904911

 Hessian updated using BFGS update

 42 Hessian modes will be used to form the next step
  Hessian Eigenvalues:
     0.018710    0.020003    0.020161    0.020877    0.022266    0.022643
     0.022993    0.023248    0.023653    0.023920    0.023990    0.024128
     0.026481    0.154007    0.159263    0.159949    0.160004    0.160016
     0.160760    0.160830    0.208266    0.220164    0.240381    0.246322
     0.255029    0.336054    0.357064    0.357813    0.357936    0.358646
     0.363230    0.364876    0.376540    0.400110    0.421642    0.429192
     0.457438    0.471402    0.478664    0.502342    0.517780    0.847718

 Minimum search - taking simple RFO step
 Searching for Lamda that Minimizes Along All modes
 Value Taken    Lamda =  -0.00577067
 Step Taken.  Stepsize is  0.143424

                             Maximum     Tolerance    Cnvgd?
         Gradient           0.020167      0.000300      NO
         Displacement       0.075603      0.001200      NO
         Energy change     -0.004209      0.000001      NO


 New Cartesian Coordinates Obtained by Inverse Iteration

 Displacement from previous Coordinates is:  0.169779
 ----------------------------------------------------------------
             Standard Nuclear Orientation (Angstroms)
    I     Atom           X                Y                Z
 ----------------------------------------------------------------
    1      C       2.1668821803    -0.7019928055     0.0001478604
    2      C       2.1213697803     0.6950873033     0.0003229684
    3      C       0.9039822916     1.4085638635     0.0003887700
    4      C      -0.2516416087     0.6685870328    -0.0000493613
    5      C      -0.2375854971    -0.7567822395    -0.0001190297
    6      C       0.9930480694    -1.4445814096     0.0003132914
    7      N      -1.5812424451     1.0678125229    -0.0007948319
    8      C      -1.5769141351    -1.1720755415    -0.0008202134
    9      C      -2.3663446572     0.0164834552     0.0012092764
   10      H      -1.9381586682     2.0570199405    -0.0010306407
   11      H      -1.9658571108    -2.1815731540    -0.0010293355
   12      H      -3.4459999674     0.1438184520     0.0019770870
   13      H       3.0495261477     1.2563273461     0.0001579427
   14      H       0.8862512891     2.4908365854    -0.0000406149
   15      H       3.1267552240    -1.2061052424    -0.0001012592
   16      H       1.0190240585    -2.5288736166    -0.0000059287
 ----------------------------------------------------------------
 Molecular Point Group                 C1    NOp =  1
 Largest Abelian Subgroup              C1    NOp =  1
 Nuclear Repulsion Energy =         401.28686811 hartrees
 There are       31 alpha and       31 beta electrons


 *******************************************
 **  MAXIMUM OPTIMIZATION CYCLES REACHED  **
 *******************************************

 Q-Chem fatal error occurred in module 0, line  455:

 Maximum optimization cycles reached

