
Running Job 1 of 1 QfuncsMPW1PW91-VI-3rd.in
qchem QfuncsMPW1PW91-VI-3rd.in_96379.0 /scratch/scaparas/job_3585321/qchem96379/ 0
/cm/shared/apps/spack/cpu/opt/spack/linux-centos8-zen2/gcc-10.2.0/qchem-5.3-5qddma6gy34jvefiv7mbcb7qm253n45r/exe/qcprog.exe_s QfuncsMPW1PW91-VI-3rd.in_96379.0 /scratch/scaparas/job_3585321/qchem96379/
                  Welcome to Q-Chem
     A Quantum Leap Into The Future Of Chemistry


 Q-Chem 5.3, Q-Chem, Inc., Pleasanton, CA (2020)

 License issued to: University of California, San Diego (site)

 Yihan Shao,  Zhengting Gan,  E. Epifanovsky,  A. T. B. Gilbert,  M. Wormit,  
 J. Kussmann,  A. W. Lange,  A. Behn,  Jia Deng,  Xintian Feng,  D. Ghosh,  
 M. Goldey,  P. R. Horn,  L. D. Jacobson,  I. Kaliman,  T. Kus,  A. Landau,  
 Jie Liu,  E. I. Proynov,  R. M. Richard,  R. P. Steele,  E. J. Sundstrom,  
 H. L. Woodcock III,  P. M. Zimmerman,  D. Zuev,  B. Alam,  B. Albrecht,  
 A. Aldossary,  E. Alguire,  S. A. Baeppler,  D. Barton,  Z. Benda,  
 Y. A. Bernard,  E. J. Berquist,  K. B. Bravaya,  H. Burton,  K. Carter-Fenk,  
 D. Casanova,  Chun-Min Chang,  Yunqing Chen,  A. Chien,  K. D. Closser,  
 M. P. Coons,  S. Coriani,  S. Dasgupta,  A. L. Dempwolff,  M. Diedenhofen,  
 Hainam Do,  R. G. Edgar,  Po-Tung Fang,  S. Faraji,  S. Fatehi,  
 Qingguo Feng,  J. Fosso-Tande,  J. Gayvert,  Qinghui Ge,  A. Ghysels,  
 G. Gidofalvi,  J. Gomes,  J. Gonthier,  S. Gulania,  A. Gunina,  D. Hait,  
 M. W. D. Hanson-Heine,  S. Hammes-Schiffer,  P. H. P. Harbach,  
 A. W. Hauser,  M. F. Herbst,  J. E. Herr,  E. G. Hohenstein,  Z. C. Holden,  
 S. Houck,  Kerwin Hui,  B. C. Huynh,  M. Ivanov,  T.-C. Jagau,  Hyunjun Ji,  
 B. Kaduk,  K. Khistyaev,  Jaehoon Kim,  P. Klunzinger,  K. Koh,  
 D. Kosenkov,  L. Koulias,  T. Kowalczyk,  C. M. Krauter,  A. Kunitsa,  
 Ka Un Lao,  A. Laurent,  K. V. Lawler,  Joonho Lee,  D. Lefrancois,  
 S. Lehtola,  D. S. Levine,  Yi-Pei Li,  You-Sheng Lin,  Fenglai Liu,  
 Kuan-Yu Liu,  E. Livshits,  M. Loipersberger,  A. Luenser,  P. Manohar,  
 E. Mansoor,  S. F. Manzer,  Shan-Ping Mao,  Yuezhi Mao,  N. Mardirossian,  
 A. V. Marenich,  T. Markovich,  L. A. Martinez-Martinez,  S. A. Maurer,  
 N. J. Mayhall,  S. C. McKenzie,  J.-M. Mewes,  P. Morgante,  A. F. Morrison,  
 J. W. Mullinax,  K. Nanda,  T. S. Nguyen-Beck,  R. Olivares-Amaya,  
 K. J. Oosterbaan,  J. A. Parkhill,  S. K. Paul,  F. Pavosevic,  Zheng Pei,  
 T. M. Perrine,  F. Plasser,  P. Pokhilko,  S. Prager,  A. Prociuk,  
 E. Ramos,  B. Rana,  D. R. Rehn,  F. Rob,  E. Rossomme,  M. Scheurer,  
 M. Schneider,  N. Sergueev,  S. M. Sharada,  S. Sharma,  W. Skomorowski,  
 D. W. Small,  T. Stauch,  C. J. Stein,  T. Stein,  Yu-Chuan Su,  
 S. P. Veccham,  Zhen Tao,  A. J. W. Thom,  A. Tkatchenko,  T. Tsuchimochi,  
 N. M. Tubman,  L. Vogt,  M. L. Vidal,  O. Vydrov,  M. A. Watson,  J. Wenzel,  
 M. de Wergifosse,  T. A. Wesolowski,  A. White,  J. Witte,  A. Yamada,  
 Jun Yang,  K. Yao,  S. Yeganeh,  S. R. Yost,  Zhi-Qiang You,  A. Zech,  
 Igor Ying Zhang,  Xing Zhang,  Yan Zhao,  Ying Zhu,  B. R. Brooks,  
 G. K. L. Chan,  C. J. Cramer,  M. S. Gordon,  W. J. Hehre,  A. Klamt,  
 M. W. Schmidt,  C. D. Sherrill,  D. G. Truhlar,  A. Aspuru-Guzik,  R. Baer,  
 A. T. Bell,  N. A. Besley,  Jeng-Da Chai,  A. E. DePrince, III,  
 R. A. DiStasio Jr.,  A. Dreuw,  B. D. Dunietz,  T. R. Furlani,  
 Chao-Ping Hsu,  Yousung Jung,  Jing Kong,  D. S. Lambrecht,  WanZhen Liang,  
 C. Ochsenfeld,  V. A. Rassolov,  L. V. Slipchenko,  J. E. Subotnik,  
 T. Van Voorhis,  J. M. Herbert,  A. I. Krylov,  P. M. W. Gill,  M. Head-Gordon

 Contributors to earlier versions of Q-Chem not listed above: 
 R. D. Adamson,  B. Austin,  J. Baker,  G. J. O. Beran,  K. Brandhorst,  
 S. T. Brown,  E. F. C. Byrd,  A. K. Chakraborty,  C.-L. Cheng,  
 Siu Hung Chien,  D. M. Chipman,  D. L. Crittenden,  H. Dachsel,  
 R. J. Doerksen,  A. D. Dutoi,  L. Fusti-Molnar,  W. A. Goddard III,  
 A. Golubeva-Zadorozhnaya,  S. R. Gwaltney,  G. Hawkins,  A. Heyden,  
 S. Hirata,  G. Kedziora,  F. J. Keil,  C. Kelley,  Jihan Kim,  R. A. King,  
 R. Z. Khaliullin,  P. P. Korambath,  W. Kurlancheek,  A. M. Lee,  M. S. Lee,  
 S. V. Levchenko,  Ching Yeh Lin,  D. Liotard,  R. C. Lochan,  I. Lotan,  
 P. E. Maslen,  N. Nair,  D. P. O'Neill,  D. Neuhauser,  E. Neuscamman,  
 C. M. Oana,  R. Olson,  B. Peters,  R. Peverati,  P. A. Pieniazek,  
 Y. M. Rhee,  J. Ritchie,  M. A. Rohrdanz,  E. Rosta,  N. J. Russ,  
 H. F. Schaefer III,  N. E. Schultz,  N. Shenvi,  A. C. Simmonett,  A. Sodt,  
 D. Stuck,  K. S. Thanthiriwatte,  V. Vanovschi,  Tao Wang,  A. Warshel,  
 C. F. Williams,  Q. Wu,  X. Xu,  W. Zhang

 Please cite Q-Chem as follows:
 Y. Shao et al., Mol. Phys. 113, 184-215 (2015)
 DOI: 10.1080/00268976.2014.952696

 Q-Chem 5.3.1 for Intel X86 EM64T Linux

 Parts of Q-Chem use Armadillo 9.800.1 (Horizon Scraper).
 http://arma.sourceforge.net/

 Q-Chem begins on Wed Jun 23 13:43:54 2021  

Host: 
0

     Scratch files written to /scratch/scaparas/job_3585321/qchem96379//
 Aug2920 |scratch|qcdevops|jenkins|workspace|build_RNUM    
Processing $rem in /cm/shared/apps/spack/cpu/opt/spack/linux-centos8-zen2/gcc-10.2.0/qchem-5.3-5qddma6gy34jvefiv7mbcb7qm253n45r/config/preferences:
Processing $rem in /home/scaparas/.qchemrc:

Checking the input file for inconsistencies... 	...done.

--------------------------------------------------------------
User input:
--------------------------------------------------------------
$molecule
0 1
C   -2.1510630    0.6892080    0.0000880
C   -2.1279270   -0.7158180    0.0000750
C   -0.9322970   -1.4131000   -0.0000110
C    0.2469110   -0.6702010   -0.0000420
C    0.2481930    0.7482990    0.0000000
C   -0.9794740    1.4235260    0.0000320
N    1.5617740   -1.0775920   -0.0002850
C    1.6201330    1.1629000   -0.0001570
C    2.3820130    0.0308060    0.0002480
H    1.8763150   -2.0300110    0.0004380
H    1.9921730    2.1730100   -0.0003480
H    3.4525490   -0.0824250    0.0004080
H   -3.0615940   -1.2620200    0.0000880
H   -0.9172520   -2.4953420   -0.0000730
H   -3.1042030    1.2007850    0.0000900
H   -1.0093480    2.5054210   -0.0000150
$end

$rem
BASIS  =  6-31+G*
GUI  =  2
JOB_TYPE  =  Optimization
METHOD  = MPW1PW91
SCF_CONVERGENCE  =  8
THRESH = 12
CIS_N_ROOTS  = 3
CIS_SINGLETS = true
CIS_TRIPLETS = false
CIS_STATE_DERIV = 3
MEM_STATIC=500
MEM_TOTAL=3000
$end
--------------------------------------------------------------
 ----------------------------------------------------------------
             Standard Nuclear Orientation (Angstroms)
    I     Atom           X                Y                Z
 ----------------------------------------------------------------
    1      C       2.1510629040    -0.6892079969     0.0000583065
    2      C       2.1279268385     0.7158180020     0.0000481775
    3      C       0.9322968051     1.4130999466    -0.0000206639
    4      C      -0.2469111607     0.6702008918    -0.0000373513
    5      C      -0.2481930942    -0.7482991083     0.0000020775
    6      C       0.9794739374    -1.4235260513     0.0000165335
    7      N      -1.5617741827     1.0775918311    -0.0002621374
    8      C      -1.6201330769    -1.1629001718    -0.0001374500
    9      C      -2.3820131241    -0.0308062080     0.0002797387
   10      H      -1.8763152174     2.0300108152     0.0004667797
   11      H      -1.9921730325    -2.1730101887    -0.0003253498
   12      H      -3.4525491271     0.0824247420     0.0004541695
   13      H       3.0615938132     1.2620200454     0.0000497686
   14      H       0.9172517540     2.4953419460    -0.0000804893
   15      H       3.1042029277    -1.2007849526     0.0000467087
   16      H       1.0093479871    -2.5054210498    -0.0000328375
 ----------------------------------------------------------------
 Molecular Point Group                 C1    NOp =  1
 Largest Abelian Subgroup              C1    NOp =  1
 Nuclear Repulsion Energy =         401.33686680 hartrees
 There are       31 alpha and       31 beta electrons
 Requested basis set is 6-31+G(d)
 There are 59 shells and 185 basis functions

 Total QAlloc Memory Limit   3000 MB
 Mega-Array Size       489 MB
 MEM_STATIC part       500 MB
 A cutoff of  1.0D-12 yielded   1657 shell pairs
 There are     17105 function pairs
 Smallest overlap matrix eigenvalue = 1.26E-06

 Scale SEOQF with 1.000000e-01/1.000000e-01/1.000000e-01

 Standard Electronic Orientation quadrupole field applied
 Nucleus-field energy     =     0.0000000117 hartrees
 Guess from superposition of atomic densities
 Warning:  Energy on first SCF cycle will be non-variational
 SAD guess density has 62.000000 electrons

 -----------------------------------------------------------------------
  General SCF calculation program by
  Eric Jon Sundstrom, Paul Horn, Yuezhi Mao, Dmitri Zuev, Alec White,
  David Stuck, Shaama M.S., Shane Yost, Joonho Lee, David Small,
  Daniel Levine, Susi Lehtola, Hugh Burton, Evgeny Epifanovsky,
  Bang C. Huynh
 -----------------------------------------------------------------------
 Exchange:     0.2500 Hartree-Fock + 0.7500 mPW91
 Correlation:  1.0000 PW91
 Using SG-1 standard quadrature grid
 using 4 threads for integral computing
 -------------------------------------------------------
 OpenMP Integral computing Module                
 Release: version 1.0, May 2013, Q-Chem Inc. Pittsburgh 
 -------------------------------------------------------
 A restricted SCF calculation will be
 performed using DIIS
 SCF converges when DIIS error is below 1.0e-08
 ---------------------------------------
  Cycle       Energy         DIIS error
 ---------------------------------------
    1    -366.2377036212      5.56e-02  
    2    -363.6375901528      4.68e-03  
    3    -363.6116745274      5.27e-03  
    4    -363.7398152763      1.28e-03  
    5    -363.7466120083      3.59e-04  
    6    -363.7471410032      1.00e-04  
    7    -363.7471791395      3.92e-05  
    8    -363.7471858867      7.52e-06  
    9    -363.7471861157      1.59e-06  
   10    -363.7471861265      6.26e-07  
   11    -363.7471861281      2.01e-07  
   12    -363.7471861283      6.80e-08  
   13    -363.7471861283      1.94e-08  
   14    -363.7471861283      5.85e-09  Convergence criterion met
 ---------------------------------------
 SCF time:   CPU 39.00s  wall 10.00s 
 SCF   energy in the final basis set =     -363.7471861283
 Total energy in the final basis set =     -363.7471861283
 
 Direct TDDFT/TDA calculation will be performed
 Exchange:     0.2500 Hartree-Fock + 0.7500 mPW91
 Correlation:  1.0000 PW91
 Using SG-1 standard quadrature grid
 Singlet excitation energies requested
 CIS energy converged when residual is below 10e- 6
 ---------------------------------------------------
 Iter    Rts Conv    Rts Left    Ttl Dev     Max Dev
 ---------------------------------------------------
   1         0           3      0.003663    0.001806
   2         0           3      0.001437    0.000789
   3         0           3      0.000329    0.000185
   4         0           3      0.000131    0.000075
   5         0           3      0.000046    0.000027
   6         1           2      0.000011    0.000006
   7         1           2      0.000004    0.000002
   8         3           0      0.000001    0.000001    Roots Converged
 ---------------------------------------------------
 
 ---------------------------------------------------
         TDDFT/TDA Excitation Energies              
 ---------------------------------------------------

 Excited state   1: excitation energy (eV) =    5.0226
 Total energy for state  1:                  -363.56261002 au
    Multiplicity: Singlet
    Trans. Mom.:  0.3967 X  -0.6608 Y  -0.0035 Z
    Strength   :     0.0731082199
    D(   30) --> V(    1) amplitude = -0.4125
    D(   30) --> V(    4) amplitude =  0.2402
    D(   31) --> V(    1) amplitude =  0.8146

 Excited state   2: excitation energy (eV) =    5.0291
 Total energy for state  2:                  -363.56237078 au
    Multiplicity: Singlet
    Trans. Mom.:  0.0090 X  -0.0178 Y   0.1284 Z
    Strength   :     0.0020790066
    D(   31) --> V(    2) amplitude =  0.9940

 Excited state   3: excitation energy (eV) =    5.0727
 Total energy for state  3:                  -363.56076602 au
    Multiplicity: Singlet
    Trans. Mom.:  0.6561 X  -0.1014 Y   0.0003 Z
    Strength   :     0.0547813416
    D(   30) --> V(    1) amplitude =  0.6700
    D(   31) --> V(    1) amplitude =  0.4161
    D(   31) --> V(    4) amplitude = -0.5804
 
 ---------------------------------------------------
 Calculating Relaxed Density
 ---------------------------------------------------
 Iter    Rts Conv    Rts Left    Ttl Dev     Max Dev
 ---------------------------------------------------
   1         0           3      0.001510    0.000807
   2         0           3      0.000604    0.000307
   3         0           3      0.000128    0.000056
   4         0           3      0.000032    0.000017
   5         0           3      0.000008    0.000004
   6         3           0      0.000000    0.000000    Roots Converged
 ---------------------------------------------------
  SETman timing summary (seconds)
  CPU time               110.76s
  System time              0.00s
  Wall time               27.84s
 
 --------------------------------------------------------------
 
                    Orbital Energies (a.u.)
 --------------------------------------------------------------
 
 Alpha MOs
 -- Occupied --
-14.4643 -10.2848 -10.2829 -10.2525 -10.2485 -10.2471 -10.2470 -10.2419
-10.2396  -1.0145  -0.8687  -0.8105  -0.7619  -0.7433  -0.6474  -0.6174
 -0.6037  -0.5606  -0.5019  -0.4895  -0.4550  -0.4464  -0.4404  -0.4279
 -0.4080  -0.3704  -0.3505  -0.3495  -0.2934  -0.2357  -0.2187
 -- Virtual --
 -0.0126   0.0013   0.0206   0.0242   0.0258   0.0413   0.0421   0.0507
  0.0639   0.0645   0.0702   0.0716   0.0899   0.0930   0.1111   0.1115
  0.1178   0.1300   0.1390   0.1451   0.1599   0.1604   0.1716   0.1721
  0.1796   0.1877   0.1933   0.1940   0.2036   0.2076   0.2083   0.2100
  0.2258   0.2321   0.2389   0.2416   0.2465   0.2535   0.2655   0.2680
  0.2777   0.2789   0.2866   0.3040   0.3100   0.3190   0.3244   0.3409
  0.3589   0.3766   0.3881   0.4089   0.4474   0.4599   0.5256   0.5947
  0.6398   0.6873   0.6879   0.7141   0.7299   0.7351   0.7444   0.7516
  0.7571   0.7683   0.7728   0.7933   0.8080   0.8158   0.8295   0.8697
  0.9100   0.9182   0.9298   0.9528   0.9603   0.9688   0.9749   1.0002
  1.0198   1.0467   1.0631   1.0804   1.1081   1.1267   1.1305   1.1846
  1.1933   1.2187   1.2383   1.2460   1.2663   1.3322   1.3328   1.3526
  1.3830   1.4267   1.4320   1.4672   1.4727   1.4796   1.5107   1.5164
  1.5542   1.6048   1.6653   1.8030   1.8612   1.9006   1.9076   1.9391
  1.9597   2.0128   2.0155   2.0217   2.0816   2.1183   2.1603   2.1910
  2.1913   2.2170   2.2665   2.2784   2.2836   2.3044   2.3335   2.3996
  2.4276   2.4659   2.5685   2.5782   2.6576   2.6793   2.6902   2.7215
  2.7580   2.8317   2.8688   2.8804   2.9773   3.0021   3.1362   3.2667
  3.4727   4.1787   4.2900   4.3197   4.3545   4.3905   4.4260   4.5094
  4.5487   4.8190
 --------------------------------------------------------------
 
          Ground-State Mulliken Net Atomic Charges

     Atom                 Charge (a.u.)
  ----------------------------------------
      1 C                     0.009242
      2 C                    -0.535331
      3 C                    -0.111381
      4 C                    -1.184854
      5 C                     1.579336
      6 C                    -0.797458
      7 N                    -0.456348
      8 C                     0.019082
      9 C                    -0.220391
     10 H                     0.435652
     11 H                     0.218284
     12 H                     0.216339
     13 H                     0.205636
     14 H                     0.206119
     15 H                     0.204130
     16 H                     0.211943
  ----------------------------------------
  Sum of atomic charges =     0.000000

 -----------------------------------------------------------------
                    Cartesian Multipole Moments
 -----------------------------------------------------------------
    Charge (ESU x 10^10)
                -0.0000
    Dipole Moment (Debye)
         X      -1.5121      Y       1.5621      Z       0.0011
       Tot       2.1741
    Quadrupole Moments (Debye-Ang)
        XX     -44.6814     XY      -3.1705     YY     -43.8425
        XZ      -0.0032     YZ       0.0033     ZZ     -58.5421
    Octopole Moments (Debye-Ang^2)
       XXX     -14.5220    XXY       8.1947    XYY      -7.9431
       YYY      10.3807    XXZ       0.0076    XYZ      -0.0067
       YYZ       0.0021    XZZ      -1.9951    YZZ       1.9875
       ZZZ      -0.0009
    Hexadecapole Moments (Debye-Ang^3)
      XXXX    -800.9724   XXXY     -21.5139   XXYY    -192.8044
      XYYY     -19.4785   YYYY    -362.3636   XXXZ      -0.0242
      XXYZ       0.0131   XYYZ      -0.0071   YYYZ       0.0143
      XXZZ    -187.1459   XYZZ      -3.9001   YYZZ     -92.4126
      XZZZ      -0.0011   YZZZ       0.0029   ZZZZ     -71.2454
 -----------------------------------------------------------------
 Calculating analytic gradient of the CIS energy
 CIS relaxed dipole moment
            1
    1  -1.1187890
    2   0.5924679
    3   0.0020007
	Magnitude:	 1.266 au	 3.218 Debye
 CIS 3 State Energy is -363.5607660159
 Gradient of the state energy (including CIS Excitation Energy)
            1           2           3           4           5           6
    1  -0.0259315  -0.0148608   0.0064099   0.0087465   0.0175368   0.0159642
    2  -0.0007499  -0.0016033  -0.0298650  -0.0017976   0.0176756   0.0309663
    3  -0.0000160   0.0000170   0.0000062  -0.0000389   0.0000461   0.0000308
            7           8           9          10          11          12
    1   0.0107427  -0.0341675   0.0135438   0.0017363   0.0010559   0.0030109
    2   0.0040852   0.0143551  -0.0314223  -0.0028260   0.0027822  -0.0005315
    3  -0.0000404  -0.0000476   0.0000595   0.0000084  -0.0000079   0.0000001
           13          14          15          16
    1  -0.0020560  -0.0000105  -0.0021083   0.0003877
    2  -0.0014891  -0.0021296   0.0005993   0.0019507
    3   0.0000012  -0.0000048  -0.0000066  -0.0000072
 Gradient time:  CPU 21.32 s  wall 5.36 s
 Geometry Optimization Parameters
   NAtoms,    NIC,     NZ,  NCons,   NDum,   NFix, NCnnct, MaxDiis
       16     116       0       0       0       0       0       0


** GEOMETRY OPTIMIZATION IN DELOCALIZED INTERNAL COORDINATES **
   Searching for a Minimum

   Optimization Cycle:   1

                       Coordinates (Angstroms)
     ATOM                X               Y               Z
      1  C         2.1510629040   -0.6892079969    0.0000583065
      2  C         2.1279268385    0.7158180020    0.0000481775
      3  C         0.9322968051    1.4130999466   -0.0000206639
      4  C        -0.2469111607    0.6702008918   -0.0000373513
      5  C        -0.2481930942   -0.7482991083    0.0000020775
      6  C         0.9794739374   -1.4235260513    0.0000165335
      7  N        -1.5617741827    1.0775918311   -0.0002621374
      8  C        -1.6201330769   -1.1629001718   -0.0001374500
      9  C        -2.3820131241   -0.0308062080    0.0002797387
     10  H        -1.8763152174    2.0300108152    0.0004667797
     11  H        -1.9921730325   -2.1730101887   -0.0003253498
     12  H        -3.4525491271    0.0824247420    0.0004541695
     13  H         3.0615938132    1.2620200454    0.0000497686
     14  H         0.9172517540    2.4953419460   -0.0000804893
     15  H         3.1042029277   -1.2007849526    0.0000467087
     16  H         1.0093479871   -2.5054210498   -0.0000328375
   Point Group: c1    Number of degrees of freedom:    42


   Energy is   -363.560766016


 Attempting to generate delocalized internal coordinates
 Initial Hessian constructed with Jon Baker's OPTIMIZE code

 42 Hessian modes will be used to form the next step
  Hessian Eigenvalues:
     0.018594    0.019738    0.020011    0.020794    0.021683    0.022200
     0.022636    0.023004    0.023236    0.023608    0.023851    0.023984
     0.024127    0.160000    0.160000    0.160000    0.160000    0.160000
     0.160000    0.160000    0.220000    0.221879    0.226618    0.240111
     0.246509    0.357123    0.357170    0.357835    0.357899    0.364196
     0.364272    0.370088    0.384319    0.426334    0.434649    0.457693
     0.466917    0.471622    0.474685    0.475669    0.481247    0.509555

 Minimum search - taking simple RFO step
 Searching for Lamda that Minimizes Along All modes
 Value Taken    Lamda =  -0.01059550
 Step Taken.  Stepsize is  0.155553

                             Maximum     Tolerance    Cnvgd?
         Gradient           0.036192      0.000300      NO
         Displacement       0.085583      0.001200      NO
         Energy change     *********      0.000001      NO


 New Cartesian Coordinates Obtained by Inverse Iteration

 Displacement from previous Coordinates is:  0.217782
 ----------------------------------------------------------------
             Standard Nuclear Orientation (Angstroms)
    I     Atom           X                Y                Z
 ----------------------------------------------------------------
    1      C       2.1751183473    -0.7054155181    -0.0000413035
    2      C       2.1392068197     0.7232657030    -0.0000447255
    3      C       0.9270272096     1.4457412005     0.0001069813
    4      C      -0.2585320834     0.6750666062     0.0001695155
    5      C      -0.2490344849    -0.7702769025    -0.0000124204
    6      C       0.9823380221    -1.4720771270    -0.0001565270
    7      N      -1.5817814999     1.0889822527    -0.0001155553
    8      C      -1.6084358324    -1.1650603783     0.0001774948
    9      C      -2.3968334768    -0.0122367804    -0.0000134310
   10      H      -1.9001566308     2.0438608881     0.0004548797
   11      H      -1.9838102241    -2.1784173053     0.0001610657
   12      H      -3.4719259920     0.0988261152    -0.0001000807
   13      H       3.0754231003     1.2722946038    -0.0000672420
   14      H       0.9096393365     2.5310130286     0.0001546224
   15      H       3.1374780311    -1.2061282167    -0.0000146011
   16      H       1.0073743090    -2.5568856772    -0.0001326917
 ----------------------------------------------------------------
 Molecular Point Group                 C1    NOp =  1
 Largest Abelian Subgroup              C1    NOp =  1
 Nuclear Repulsion Energy =         397.25032763 hartrees
 There are       31 alpha and       31 beta electrons
 Applying Cartesian multipole field
    Component          Value
    ---------          -----
     (2,0,0)        1.00000E-11
     (0,2,0)        2.00000E-11
     (0,0,2)       -3.00000E-11
 Nucleus-field energy     =     0.0000000119 hartrees
 Requested basis set is 6-31+G(d)
 There are 59 shells and 185 basis functions
 A cutoff of  1.0D-12 yielded   1656 shell pairs
 There are     17099 function pairs
 Smallest overlap matrix eigenvalue = 1.42E-06
 Guess MOs from SCF MO coefficient file

 -----------------------------------------------------------------------
  General SCF calculation program by
  Eric Jon Sundstrom, Paul Horn, Yuezhi Mao, Dmitri Zuev, Alec White,
  David Stuck, Shaama M.S., Shane Yost, Joonho Lee, David Small,
  Daniel Levine, Susi Lehtola, Hugh Burton, Evgeny Epifanovsky,
  Bang C. Huynh
 -----------------------------------------------------------------------
 Exchange:     0.2500 Hartree-Fock + 0.7500 mPW91
 Correlation:  1.0000 PW91
 Using SG-1 standard quadrature grid
 using 4 threads for integral computing
 -------------------------------------------------------
 OpenMP Integral computing Module                
 Release: version 1.0, May 2013, Q-Chem Inc. Pittsburgh 
 -------------------------------------------------------
 A restricted SCF calculation will be
 performed using DIIS
 SCF converges when DIIS error is below 1.0e-08
 ---------------------------------------
  Cycle       Energy         DIIS error
 ---------------------------------------
    1    -363.7393087901      8.91e-04  
    2    -363.7427667637      2.46e-04  
    3    -363.7428104294      2.26e-04  
    4    -363.7430240774      5.89e-05  
    5    -363.7430389715      1.47e-05  
    6    -363.7430398539      6.93e-06  
    7    -363.7430400815      1.07e-06  
    8    -363.7430400862      6.17e-07  
    9    -363.7430400879      1.74e-07  
   10    -363.7430400881      7.39e-08  
   11    -363.7430400881      1.67e-08  
   12    -363.7430400881      3.28e-09  Convergence criterion met
 ---------------------------------------
 SCF time:   CPU 34.30s  wall 8.00s 
 SCF   energy in the final basis set =     -363.7430400881
 Total energy in the final basis set =     -363.7430400881
 
 Direct TDDFT/TDA calculation will be performed
 Exchange:     0.2500 Hartree-Fock + 0.7500 mPW91
 Correlation:  1.0000 PW91
 Using SG-1 standard quadrature grid
 Singlet excitation energies requested
 CIS energy converged when residual is below 10e- 6
 ---------------------------------------------------
 Iter    Rts Conv    Rts Left    Ttl Dev     Max Dev
 ---------------------------------------------------
   1         0           3      0.003700    0.001839
   2         0           3      0.001549    0.000873
   3         0           3      0.000355    0.000217
   4         0           3      0.000151    0.000095
   5         0           3      0.000051    0.000031
   6         1           2      0.000013    0.000008
   7         1           2      0.000005    0.000003
   8         3           0      0.000002    0.000001    Roots Converged
 ---------------------------------------------------
 
 ---------------------------------------------------
         TDDFT/TDA Excitation Energies              
 ---------------------------------------------------

 Excited state   1: excitation energy (eV) =    4.7890
 Total energy for state  1:                  -363.56704581 au
    Multiplicity: Singlet
    Trans. Mom.: -0.8135 X   0.4942 Y   0.0001 Z
    Strength   :     0.1063016403
    D(   30) --> V(    1) amplitude = -0.2599
    D(   30) --> V(    3) amplitude =  0.2485
    D(   31) --> V(    1) amplitude =  0.8306
    D(   31) --> V(    3) amplitude =  0.3561

 Excited state   2: excitation energy (eV) =    4.8794
 Total energy for state  2:                  -363.56372629 au
    Multiplicity: Singlet
    Trans. Mom.: -0.0639 X   0.4857 Y   0.0018 Z
    Strength   :     0.0286829955
    D(   30) --> V(    1) amplitude =  0.7316
    D(   31) --> V(    1) amplitude =  0.3814
    D(   31) --> V(    3) amplitude = -0.5067

 Excited state   3: excitation energy (eV) =    4.8860
 Total energy for state  3:                  -363.56348435 au
    Multiplicity: Singlet
    Trans. Mom.:  0.0007 X  -0.0063 Y   0.1409 Z
    Strength   :     0.0023824661
    D(   31) --> V(    2) amplitude =  0.9949
 
 ---------------------------------------------------
 Calculating Relaxed Density
 ---------------------------------------------------
 Iter    Rts Conv    Rts Left    Ttl Dev     Max Dev
 ---------------------------------------------------
   1         0           3      0.001613    0.000860
   2         0           3      0.000641    0.000301
   3         0           3      0.000149    0.000063
   4         0           3      0.000039    0.000017
   5         0           3      0.000009    0.000005
   6         2           1      0.000001    0.000001
   7         3           0      0.000000    0.000000    Roots Converged
 ---------------------------------------------------
  SETman timing summary (seconds)
  CPU time               113.63s
  System time              0.00s
  Wall time               28.57s
 
 --------------------------------------------------------------
 
                    Orbital Energies (a.u.)
 --------------------------------------------------------------
 
 Alpha MOs
 -- Occupied --
-14.4692 -10.2896 -10.2886 -10.2599 -10.2552 -10.2539 -10.2537 -10.2509
-10.2418  -1.0138  -0.8594  -0.8073  -0.7580  -0.7369  -0.6461  -0.6191
 -0.5991  -0.5585  -0.5037  -0.4863  -0.4539  -0.4488  -0.4382  -0.4213
 -0.4070  -0.3702  -0.3521  -0.3455  -0.2925  -0.2350  -0.2143
 -- Virtual --
 -0.0186   0.0002   0.0185   0.0205   0.0257   0.0406   0.0417   0.0492
  0.0638   0.0647   0.0689   0.0710   0.0889   0.0929   0.1102   0.1107
  0.1179   0.1294   0.1377   0.1434   0.1579   0.1598   0.1695   0.1698
  0.1794   0.1868   0.1906   0.1934   0.2015   0.2045   0.2055   0.2070
  0.2238   0.2290   0.2380   0.2383   0.2452   0.2497   0.2619   0.2680
  0.2757   0.2780   0.2840   0.2987   0.3018   0.3113   0.3238   0.3364
  0.3501   0.3673   0.3780   0.3988   0.4366   0.4529   0.5181   0.5746
  0.6101   0.6865   0.6889   0.7132   0.7253   0.7355   0.7400   0.7500
  0.7515   0.7681   0.7685   0.7902   0.8043   0.8061   0.8239   0.8664
  0.9052   0.9119   0.9248   0.9550   0.9627   0.9685   0.9725   1.0026
  1.0105   1.0451   1.0621   1.0738   1.1019   1.1229   1.1242   1.1814
  1.1880   1.2130   1.2346   1.2469   1.2528   1.3291   1.3306   1.3539
  1.3733   1.4135   1.4217   1.4519   1.4691   1.4840   1.5038   1.5087
  1.5521   1.5954   1.6559   1.7879   1.8369   1.9002   1.9013   1.9141
  1.9331   1.9969   2.0079   2.0194   2.0551   2.0772   2.1382   2.1560
  2.1719   2.1948   2.2443   2.2539   2.2654   2.2857   2.3127   2.3813
  2.4136   2.4626   2.5428   2.5595   2.6405   2.6428   2.6602   2.6918
  2.7324   2.8057   2.8444   2.8486   2.9643   2.9845   3.1085   3.2402
  3.4013   4.1722   4.2644   4.3173   4.3386   4.3814   4.4236   4.4993
  4.5417   4.7951
 --------------------------------------------------------------
 
          Ground-State Mulliken Net Atomic Charges

     Atom                 Charge (a.u.)
  ----------------------------------------
      1 C                    -0.046926
      2 C                    -0.471732
      3 C                    -0.253367
      4 C                    -1.139803
      5 C                     1.552224
      6 C                    -0.651211
      7 N                    -0.428864
      8 C                    -0.061985
      9 C                    -0.207916
     10 H                     0.438617
     11 H                     0.217202
     12 H                     0.217767
     13 H                     0.205347
     14 H                     0.209229
     15 H                     0.205679
     16 H                     0.215740
  ----------------------------------------
  Sum of atomic charges =     0.000000

 -----------------------------------------------------------------
                    Cartesian Multipole Moments
 -----------------------------------------------------------------
    Charge (ESU x 10^10)
                -0.0000
    Dipole Moment (Debye)
         X      -1.5612      Y       1.6436      Z       0.0008
       Tot       2.2668
    Quadrupole Moments (Debye-Ang)
        XX     -44.7124     XY      -3.5291     YY     -43.5496
        XZ      -0.0013     YZ       0.0022     ZZ     -59.0482
    Octopole Moments (Debye-Ang^2)
       XXX     -14.9320    XXY       8.9516    XYY      -7.9791
       YYY      10.9767    XXZ       0.0011    XYZ      -0.0043
       YYZ       0.0043    XZZ      -2.3158    YZZ       2.1523
       ZZZ      -0.0024
    Hexadecapole Moments (Debye-Ang^3)
      XXXX    -809.5353   XXXY     -21.9348   XXYY    -196.1142
      XYYY     -18.4596   YYYY    -370.7809   XXXZ       0.0070
      XXYZ       0.0041   XYYZ      -0.0065   YYYZ       0.0050
      XXZZ    -190.8139   XYZZ      -3.1079   YYZZ     -95.5252
      XZZZ       0.0094   YZZZ      -0.0047   ZZZZ     -72.7612
 -----------------------------------------------------------------
 Calculating analytic gradient of the CIS energy
 CIS relaxed dipole moment
            1
    1   2.4611678
    2  -2.7023221
    3   0.0049393
	Magnitude:	 3.655 au	 9.290 Debye
 CIS 3 State Energy is -363.5634843468
 Gradient of the state energy (including CIS Excitation Energy)
            1           2           3           4           5           6
    1   0.0162943   0.0031796   0.0241431  -0.0217539   0.0024398  -0.0136605
    2  -0.0095301   0.0254203   0.0206814  -0.0045169  -0.0163765  -0.0200378
    3   0.0000680  -0.0000846   0.0000546   0.0001684  -0.0000897  -0.0000610
            7           8           9          10          11          12
    1   0.0122322  -0.0187663  -0.0216811   0.0121186   0.0015214   0.0025047
    2   0.0674198   0.0130184  -0.0496453  -0.0274319   0.0009451  -0.0023203
    3  -0.0001185   0.0000519   0.0000177   0.0000022   0.0000002   0.0000018
           13          14          15          16
    1   0.0002982   0.0012559   0.0006975  -0.0008237
    2   0.0007887   0.0024896  -0.0000177  -0.0008870
    3  -0.0000080  -0.0000180   0.0000175  -0.0000027
 Gradient time:  CPU 21.28 s  wall 5.35 s
 Geometry Optimization Parameters
   NAtoms,    NIC,     NZ,  NCons,   NDum,   NFix, NCnnct, MaxDiis
       16     116       0       0       0       0       0       0

 Cartesian Hessian Update
 Hessian updated using BFGS update


** GEOMETRY OPTIMIZATION IN DELOCALIZED INTERNAL COORDINATES **
   Searching for a Minimum

   Optimization Cycle:   2

                       Coordinates (Angstroms)
     ATOM                X               Y               Z
      1  C         2.1751183473   -0.7054155181   -0.0000413035
      2  C         2.1392068197    0.7232657030   -0.0000447255
      3  C         0.9270272096    1.4457412005    0.0001069813
      4  C        -0.2585320834    0.6750666062    0.0001695155
      5  C        -0.2490344849   -0.7702769025   -0.0000124204
      6  C         0.9823380221   -1.4720771270   -0.0001565270
      7  N        -1.5817814999    1.0889822527   -0.0001155553
      8  C        -1.6084358324   -1.1650603783    0.0001774948
      9  C        -2.3968334768   -0.0122367804   -0.0000134310
     10  H        -1.9001566308    2.0438608881    0.0004548797
     11  H        -1.9838102241   -2.1784173053    0.0001610657
     12  H        -3.4719259920    0.0988261152   -0.0001000807
     13  H         3.0754231003    1.2722946038   -0.0000672420
     14  H         0.9096393365    2.5310130286    0.0001546224
     15  H         3.1374780311   -1.2061282167   -0.0000146011
     16  H         1.0073743090   -2.5568856772   -0.0001326917
   Point Group: c1    Number of degrees of freedom:    42


   Energy is   -363.563484347

 Hessian updated using BFGS update

 40 Hessian modes will be used to form the next step
  Hessian Eigenvalues:
     0.018594    0.019738    0.020011    0.020794    0.021683    0.022200
     0.022636    0.023004    0.023236    0.023608    0.023851    0.023984
     0.024127    0.156644    0.160000    0.160000    0.160000    0.160126
     0.196328    0.221948    0.224319    0.235775    0.247369    0.282786
     0.357171    0.357310    0.357860    0.358326    0.364247    0.365843
     0.370455    0.388708    0.427185    0.441436    0.463738    0.469011
     0.472884    0.475718    0.494142    1.269995

 Minimum search - taking simple RFO step
 Searching for Lamda that Minimizes Along All modes
 Value Taken    Lamda =  -0.00794333
 Step Taken.  Stepsize is  0.137029

                             Maximum     Tolerance    Cnvgd?
         Gradient           0.029979      0.000300      NO
         Displacement       0.070789      0.001200      NO
         Energy change     -0.002718      0.000001      NO


 New Cartesian Coordinates Obtained by Inverse Iteration

 Displacement from previous Coordinates is:  0.181457
 ----------------------------------------------------------------
             Standard Nuclear Orientation (Angstroms)
    I     Atom           X                Y                Z
 ----------------------------------------------------------------
    1      C       2.1855068479    -0.7142828136    -0.0001950489
    2      C       2.1293778374     0.7062678693    -0.0000467412
    3      C       0.9042353901     1.4399061359    -0.0001958634
    4      C      -0.2650081622     0.6713495516    -0.0000820666
    5      C      -0.2390949115    -0.7737198485     0.0001037747
    6      C       0.9927033770    -1.4855347720     0.0000511115
    7      N      -1.5932537873     1.0831220458     0.0002844425
    8      C      -1.5794213200    -1.1622183897     0.0001349583
    9      C      -2.3858331084     0.0179148882    -0.0001888927
   10      H      -1.9343610171     2.0584249331     0.0008531199
   11      H      -1.9617752997    -2.1774968364     0.0000715177
   12      H      -3.4652387177     0.1418632012    -0.0004169917
   13      H       3.0643824292     1.2606458928     0.0000658145
   14      H       0.8789627499     2.5243858513     0.0001141479
   15      H       3.1535578358    -1.2068579078    -0.0002535455
   16      H       1.0183548080    -2.5712173086     0.0002262441
 ----------------------------------------------------------------
 Molecular Point Group                 C1    NOp =  1
 Largest Abelian Subgroup              C1    NOp =  1
 Nuclear Repulsion Energy =         397.79169662 hartrees
 There are       31 alpha and       31 beta electrons
 Applying Cartesian multipole field
    Component          Value
    ---------          -----
     (2,0,0)        1.00000E-11
     (0,2,0)        2.00000E-11
     (0,0,2)       -3.00000E-11
 Nucleus-field energy     =     0.0000000119 hartrees
 Requested basis set is 6-31+G(d)
 There are 59 shells and 185 basis functions
 A cutoff of  1.0D-12 yielded   1657 shell pairs
 There are     17105 function pairs
 Smallest overlap matrix eigenvalue = 1.34E-06
 Guess MOs from SCF MO coefficient file

 -----------------------------------------------------------------------
  General SCF calculation program by
  Eric Jon Sundstrom, Paul Horn, Yuezhi Mao, Dmitri Zuev, Alec White,
  David Stuck, Shaama M.S., Shane Yost, Joonho Lee, David Small,
  Daniel Levine, Susi Lehtola, Hugh Burton, Evgeny Epifanovsky,
  Bang C. Huynh
 -----------------------------------------------------------------------
 Exchange:     0.2500 Hartree-Fock + 0.7500 mPW91
 Correlation:  1.0000 PW91
 Using SG-1 standard quadrature grid
 using 4 threads for integral computing
 -------------------------------------------------------
 OpenMP Integral computing Module                
 Release: version 1.0, May 2013, Q-Chem Inc. Pittsburgh 
 -------------------------------------------------------
 A restricted SCF calculation will be
 performed using DIIS
 SCF converges when DIIS error is below 1.0e-08
 ---------------------------------------
  Cycle       Energy         DIIS error
 ---------------------------------------
    1    -363.7337431608      6.39e-04  
    2    -363.7361325051      1.54e-04  
    3    -363.7361465430      1.46e-04  
    4    -363.7362208701      5.60e-05  
    5    -363.7362326264      1.83e-05  
    6    -363.7362341729      4.99e-06  
    7    -363.7362342870      1.94e-06  
    8    -363.7362343042      5.59e-07  
    9    -363.7362343056      2.04e-07  
   10    -363.7362343058      4.41e-08  
   11    -363.7362343058      2.29e-08  
   12    -363.7362343058      4.57e-09  Convergence criterion met
 ---------------------------------------
 SCF time:   CPU 34.18s  wall 9.00s 
 SCF   energy in the final basis set =     -363.7362343058
 Total energy in the final basis set =     -363.7362343058
 
 Direct TDDFT/TDA calculation will be performed
 Exchange:     0.2500 Hartree-Fock + 0.7500 mPW91
 Correlation:  1.0000 PW91
 Using SG-1 standard quadrature grid
 Singlet excitation energies requested
 CIS energy converged when residual is below 10e- 6
 ---------------------------------------------------
 Iter    Rts Conv    Rts Left    Ttl Dev     Max Dev
 ---------------------------------------------------
   1         0           3      0.003735    0.001850
   2         0           3      0.001832    0.001292
   3         0           3      0.000486    0.000370
   4         0           3      0.000186    0.000142
   5         0           3      0.000063    0.000047
   6         1           2      0.000017    0.000014
   7         1           2      0.000007    0.000006
   8         2           1      0.000002    0.000002
   9         3           0      0.000001    0.000000    Roots Converged
 ---------------------------------------------------
 
 ---------------------------------------------------
         TDDFT/TDA Excitation Energies              
 ---------------------------------------------------

 Excited state   1: excitation energy (eV) =    4.5740
 Total energy for state  1:                  -363.56814288 au
    Multiplicity: Singlet
    Trans. Mom.:  0.0022 X  -0.0016 Y  -0.1327 Z
    Strength   :     0.0019749540
    D(   31) --> V(    2) amplitude =  0.9957

 Excited state   2: excitation energy (eV) =    4.5899
 Total energy for state  2:                  -363.56755737 au
    Multiplicity: Singlet
    Trans. Mom.: -0.9150 X   0.6246 Y  -0.0005 Z
    Strength   :     0.1380091603
    D(   30) --> V(    3) amplitude =  0.2281
    D(   31) --> V(    1) amplitude =  0.8912
    D(   31) --> V(    3) amplitude = -0.2751

 Excited state   3: excitation energy (eV) =    4.8816
 Total energy for state  3:                  -363.55683936 au
    Multiplicity: Singlet
    Trans. Mom.:  0.2167 X  -0.3248 Y   0.0001 Z
    Strength   :     0.0182363678
    D(   30) --> V(    1) amplitude =  0.7197
    D(   31) --> V(    1) amplitude = -0.2367
    D(   31) --> V(    3) amplitude = -0.6159
 
 ---------------------------------------------------
 Calculating Relaxed Density
 ---------------------------------------------------
 Iter    Rts Conv    Rts Left    Ttl Dev     Max Dev
 ---------------------------------------------------
   1         0           3      0.001656    0.000858
   2         0           3      0.000653    0.000286
   3         0           3      0.000158    0.000073
   4         0           3      0.000042    0.000020
   5         0           3      0.000010    0.000006
   6         2           1      0.000001    0.000001
   7         3           0      0.000000    0.000000    Roots Converged
 ---------------------------------------------------
  SETman timing summary (seconds)
  CPU time               117.01s
  System time              0.00s
  Wall time               29.42s
 
 --------------------------------------------------------------
 
                    Orbital Energies (a.u.)
 --------------------------------------------------------------
 
 Alpha MOs
 -- Occupied --
-14.4745 -10.2894 -10.2880 -10.2604 -10.2549 -10.2530 -10.2529 -10.2514
-10.2400  -1.0234  -0.8608  -0.8046  -0.7629  -0.7307  -0.6483  -0.6192
 -0.5980  -0.5591  -0.5034  -0.4860  -0.4552  -0.4505  -0.4436  -0.4155
 -0.4049  -0.3694  -0.3522  -0.3475  -0.2909  -0.2401  -0.2063
 -- Virtual --
 -0.0199  -0.0031   0.0200   0.0203   0.0262   0.0404   0.0421   0.0498
  0.0635   0.0646   0.0685   0.0702   0.0888   0.0931   0.1101   0.1109
  0.1171   0.1297   0.1378   0.1410   0.1561   0.1599   0.1690   0.1700
  0.1797   0.1859   0.1911   0.1932   0.1997   0.2048   0.2057   0.2083
  0.2242   0.2286   0.2367   0.2396   0.2443   0.2500   0.2590   0.2679
  0.2751   0.2790   0.2850   0.2995   0.3019   0.3090   0.3257   0.3397
  0.3556   0.3655   0.3773   0.3959   0.4340   0.4559   0.5228   0.5745
  0.6093   0.6867   0.6893   0.7118   0.7291   0.7360   0.7421   0.7506
  0.7507   0.7703   0.7755   0.7898   0.8053   0.8066   0.8258   0.8670
  0.9013   0.9097   0.9230   0.9575   0.9640   0.9703   0.9713   1.0046
  1.0108   1.0418   1.0576   1.0622   1.0997   1.1202   1.1281   1.1837
  1.1880   1.2145   1.2349   1.2465   1.2498   1.3266   1.3378   1.3578
  1.3731   1.4110   1.4222   1.4544   1.4717   1.4851   1.5035   1.5110
  1.5564   1.5947   1.6600   1.7768   1.8301   1.9026   1.9049   1.9152
  1.9379   1.9911   2.0091   2.0230   2.0551   2.0763   2.1340   2.1630
  2.1759   2.1839   2.2398   2.2510   2.2761   2.3042   2.3231   2.3865
  2.4239   2.4723   2.5411   2.5689   2.6392   2.6448   2.6557   2.6904
  2.7305   2.8106   2.8457   2.8489   2.9650   2.9891   3.1056   3.2476
  3.4024   4.1783   4.2639   4.3147   4.3346   4.3832   4.4271   4.5013
  4.5425   4.7971
 --------------------------------------------------------------
 
          Ground-State Mulliken Net Atomic Charges

     Atom                 Charge (a.u.)
  ----------------------------------------
      1 C                    -0.062429
      2 C                    -0.462023
      3 C                    -0.293483
      4 C                    -1.139941
      5 C                     1.574988
      6 C                    -0.595167
      7 N                    -0.390120
      8 C                    -0.140822
      9 C                    -0.197192
     10 H                     0.438932
     11 H                     0.214707
     12 H                     0.216911
     13 H                     0.203166
     14 H                     0.208979
     15 H                     0.207107
     16 H                     0.216388
  ----------------------------------------
  Sum of atomic charges =     0.000000

 -----------------------------------------------------------------
                    Cartesian Multipole Moments
 -----------------------------------------------------------------
    Charge (ESU x 10^10)
                 0.0000
    Dipole Moment (Debye)
         X      -1.6515      Y       1.8355      Z       0.0010
       Tot       2.4691
    Quadrupole Moments (Debye-Ang)
        XX     -44.7036     XY      -4.3147     YY     -43.5321
        XZ      -0.0002     YZ       0.0032     ZZ     -59.0995
    Octopole Moments (Debye-Ang^2)
       XXX     -15.4460    XXY      10.0376    XYY      -8.5174
       YYY      12.0349    XXZ      -0.0000    XYZ      -0.0044
       YYZ       0.0107    XZZ      -2.4497    YZZ       2.4690
       ZZZ       0.0022
    Hexadecapole Moments (Debye-Ang^3)
      XXXX    -806.9518   XXXY     -23.2374   XXYY    -195.1321
      XYYY     -16.5007   YYYY    -370.7213   XXXZ       0.0263
      XXYZ       0.0167   XYYZ      -0.0049   YYYZ       0.0168
      XXZZ    -190.4640   XYZZ      -1.7966   YYZZ     -95.8395
      XZZZ       0.0176   YZZZ       0.0029   ZZZZ     -73.0756
 -----------------------------------------------------------------
 Calculating analytic gradient of the CIS energy
 CIS relaxed dipole moment
            1
    1  -0.9121068
    2   0.4906367
    3   0.0005260
	Magnitude:	 1.036 au	 2.632 Debye
 CIS 3 State Energy is -363.5568393576
 Gradient of the state energy (including CIS Excitation Energy)
            1           2           3           4           5           6
    1   0.0047506  -0.0073584  -0.0023726  -0.0094574  -0.0147233   0.0104228
    2  -0.0001631  -0.0144478   0.0118481  -0.0253706   0.0036530  -0.0104184
    3  -0.0000154   0.0000162  -0.0000310  -0.0000389   0.0000047   0.0000074
            7           8           9          10          11          12
    1  -0.0375900   0.0420425   0.0279146  -0.0112516   0.0006655  -0.0043363
    2  -0.0395137  -0.0075992   0.0612083   0.0195117  -0.0029692   0.0047732
    3   0.0000177   0.0000376  -0.0000359   0.0000279   0.0000017  -0.0000088
           13          14          15          16
    1   0.0012958  -0.0021224   0.0013904   0.0007298
    2   0.0008241   0.0003863  -0.0002301  -0.0014927
    3   0.0000030   0.0000116  -0.0000002   0.0000025
 Gradient time:  CPU 21.31 s  wall 5.37 s
 Geometry Optimization Parameters
   NAtoms,    NIC,     NZ,  NCons,   NDum,   NFix, NCnnct, MaxDiis
       16     116       0       0       0       0       0       0

 Cartesian Hessian Update
 Hessian updated using BFGS update


** GEOMETRY OPTIMIZATION IN DELOCALIZED INTERNAL COORDINATES **
   Searching for a Minimum

   Optimization Cycle:   3

                       Coordinates (Angstroms)
     ATOM                X               Y               Z
      1  C         2.1855068479   -0.7142828136   -0.0001950489
      2  C         2.1293778374    0.7062678693   -0.0000467412
      3  C         0.9042353901    1.4399061359   -0.0001958634
      4  C        -0.2650081622    0.6713495516   -0.0000820666
      5  C        -0.2390949115   -0.7737198485    0.0001037747
      6  C         0.9927033770   -1.4855347720    0.0000511115
      7  N        -1.5932537873    1.0831220458    0.0002844425
      8  C        -1.5794213200   -1.1622183897    0.0001349583
      9  C        -2.3858331084    0.0179148882   -0.0001888927
     10  H        -1.9343610171    2.0584249331    0.0008531199
     11  H        -1.9617752997   -2.1774968364    0.0000715177
     12  H        -3.4652387177    0.1418632012   -0.0004169917
     13  H         3.0643824292    1.2606458928    0.0000658145
     14  H         0.8789627499    2.5243858513    0.0001141479
     15  H         3.1535578358   -1.2068579078   -0.0002535455
     16  H         1.0183548080   -2.5712173086    0.0002262441
   Point Group: c1    Number of degrees of freedom:    42


   Energy is   -363.556839358

 Hessian updated using BFGS update

 40 Hessian modes will be used to form the next step
  Hessian Eigenvalues:
     0.018594    0.019738    0.020011    0.020794    0.021683    0.022200
     0.022636    0.023004    0.023236    0.023608    0.023851    0.023984
     0.024127    0.159356    0.160000    0.160000    0.160047    0.161997
     0.217090    0.222024    0.229105    0.242762    0.248271    0.357161
     0.357257    0.357857    0.358020    0.364055    0.364396    0.370372
     0.386240    0.425285    0.427199    0.444296    0.468367    0.469659
     0.473794    0.490303    0.571559    1.384565

 Minimum search - taking simple RFO step
 Searching for Lamda that Minimizes Along All modes
 Value Taken    Lamda =  -0.00860846
 Step Taken.  Stepsize is  0.115684

                             Maximum     Tolerance    Cnvgd?
         Gradient           0.050878      0.000300      NO
         Displacement       0.071769      0.001200      NO
         Energy change      0.006645      0.000001      NO


 New Cartesian Coordinates Obtained by Inverse Iteration

 Displacement from previous Coordinates is:  0.176333
 ----------------------------------------------------------------
             Standard Nuclear Orientation (Angstroms)
    I     Atom           X                Y                Z
 ----------------------------------------------------------------
    1      C       2.1722723671    -0.6987546624    -0.0001546488
    2      C       2.1396406149     0.7148159770     0.0000080159
    3      C       0.9184212280     1.4340407709    -0.0001888465
    4      C      -0.2493137265     0.6769502040    -0.0001181907
    5      C      -0.2473301579    -0.7623871962     0.0000964410
    6      C       0.9814643692    -1.4557118594     0.0000831800
    7      N      -1.5743121392     1.0706490111     0.0002105250
    8      C      -1.6014863125    -1.1705187990     0.0000176134
    9      C      -2.3930676986    -0.0053111566    -0.0000430744
   10      H      -1.9032221038     2.0408279294     0.0006804244
   11      H      -1.9839865331    -2.1831461754    -0.0000885108
   12      H      -3.4692224763     0.1141684776    -0.0001385751
   13      H       3.0758881292     1.2632914382     0.0001162494
   14      H       0.8978709159     2.5173063883     0.0000695004
   15      H       3.1318733597    -1.2040219592    -0.0002434320
   16      H       1.0076051152    -2.5396458958     0.0002193100
 ----------------------------------------------------------------
 Molecular Point Group                 C1    NOp =  1
 Largest Abelian Subgroup              C1    NOp =  1
 Nuclear Repulsion Energy =         398.74493485 hartrees
 There are       31 alpha and       31 beta electrons
 Applying Cartesian multipole field
    Component          Value
    ---------          -----
     (2,0,0)        1.00000E-11
     (0,2,0)        2.00000E-11
     (0,0,2)       -3.00000E-11
 Nucleus-field energy     =     0.0000000118 hartrees
 Requested basis set is 6-31+G(d)
 There are 59 shells and 185 basis functions
 A cutoff of  1.0D-12 yielded   1657 shell pairs
 There are     17105 function pairs
 Smallest overlap matrix eigenvalue = 1.32E-06
 Guess MOs from SCF MO coefficient file

 -----------------------------------------------------------------------
  General SCF calculation program by
  Eric Jon Sundstrom, Paul Horn, Yuezhi Mao, Dmitri Zuev, Alec White,
  David Stuck, Shaama M.S., Shane Yost, Joonho Lee, David Small,
  Daniel Levine, Susi Lehtola, Hugh Burton, Evgeny Epifanovsky,
  Bang C. Huynh
 -----------------------------------------------------------------------
 Exchange:     0.2500 Hartree-Fock + 0.7500 mPW91
 Correlation:  1.0000 PW91
 Using SG-1 standard quadrature grid
 using 4 threads for integral computing
 -------------------------------------------------------
 OpenMP Integral computing Module                
 Release: version 1.0, May 2013, Q-Chem Inc. Pittsburgh 
 -------------------------------------------------------
 A restricted SCF calculation will be
 performed using DIIS
 SCF converges when DIIS error is below 1.0e-08
 ---------------------------------------
  Cycle       Energy         DIIS error
 ---------------------------------------
    1    -363.7413333299      6.27e-04  
    2    -363.7432528129      1.51e-04  
    3    -363.7432044351      1.83e-04  
    4    -363.7433467678      4.34e-05  
    5    -363.7433545354      1.44e-05  
    6    -363.7433555163      4.63e-06  
    7    -363.7433556192      1.30e-06  
    8    -363.7433556276      5.27e-07  
    9    -363.7433556289      2.10e-07  
   10    -363.7433556291      4.83e-08  
   11    -363.7433556291      1.79e-08  
   12    -363.7433556291      3.27e-09  Convergence criterion met
 ---------------------------------------
 SCF time:   CPU 34.26s  wall 9.00s 
 SCF   energy in the final basis set =     -363.7433556291
 Total energy in the final basis set =     -363.7433556291
 
 Direct TDDFT/TDA calculation will be performed
 Exchange:     0.2500 Hartree-Fock + 0.7500 mPW91
 Correlation:  1.0000 PW91
 Using SG-1 standard quadrature grid
 Singlet excitation energies requested
 CIS energy converged when residual is below 10e- 6
 ---------------------------------------------------
 Iter    Rts Conv    Rts Left    Ttl Dev     Max Dev
 ---------------------------------------------------
   1         0           3      0.003716    0.001850
   2         0           3      0.001518    0.000925
   3         0           3      0.000363    0.000244
   4         0           3      0.000150    0.000107
   5         0           3      0.000051    0.000036
   6         1           2      0.000013    0.000009
   7         1           2      0.000005    0.000004
   8         3           0      0.000002    0.000001    Roots Converged
 ---------------------------------------------------
 
 ---------------------------------------------------
         TDDFT/TDA Excitation Energies              
 ---------------------------------------------------

 Excited state   1: excitation energy (eV) =    4.7600
 Total energy for state  1:                  -363.56842889 au
    Multiplicity: Singlet
    Trans. Mom.: -0.8461 X   0.6553 Y   0.0008 Z
    Strength   :     0.1335714849
    D(   30) --> V(    4) amplitude =  0.2430
    D(   31) --> V(    1) amplitude =  0.9112

 Excited state   2: excitation energy (eV) =    4.7667
 Total energy for state  2:                  -363.56818356 au
    Multiplicity: Singlet
    Trans. Mom.:  0.0058 X  -0.0047 Y   0.1367 Z
    Strength   :     0.0021872299
    D(   31) --> V(    2) amplitude =  0.9953

 Excited state   3: excitation energy (eV) =    4.9121
 Total energy for state  3:                  -363.56284019 au
    Multiplicity: Singlet
    Trans. Mom.: -0.1093 X  -0.2700 Y  -0.0001 Z
    Strength   :     0.0102110735
    D(   30) --> V(    1) amplitude =  0.7589
    D(   31) --> V(    4) amplitude = -0.6147
 
 ---------------------------------------------------
 Calculating Relaxed Density
 ---------------------------------------------------
 Iter    Rts Conv    Rts Left    Ttl Dev     Max Dev
 ---------------------------------------------------
   1         0           3      0.001601    0.000897
   2         0           3      0.000635    0.000311
   3         0           3      0.000149    0.000065
   4         0           3      0.000041    0.000019
   5         1           2      0.000008    0.000004
   6         1           2      0.000003    0.000001
   7         3           0      0.000000    0.000000    Roots Converged
 ---------------------------------------------------
  SETman timing summary (seconds)
  CPU time               114.12s
  System time              0.00s
  Wall time               28.69s
 
 --------------------------------------------------------------
 
                    Orbital Energies (a.u.)
 --------------------------------------------------------------
 
 Alpha MOs
 -- Occupied --
-14.4705 -10.2892 -10.2863 -10.2577 -10.2522 -10.2519 -10.2516 -10.2480
-10.2415  -1.0183  -0.8628  -0.8060  -0.7617  -0.7360  -0.6484  -0.6173
 -0.6004  -0.5584  -0.5036  -0.4876  -0.4540  -0.4479  -0.4415  -0.4208
 -0.4080  -0.3692  -0.3521  -0.3478  -0.2920  -0.2378  -0.2113
 -- Virtual --
 -0.0182  -0.0011   0.0205   0.0215   0.0259   0.0407   0.0418   0.0493
  0.0635   0.0644   0.0691   0.0707   0.0895   0.0927   0.1103   0.1109
  0.1174   0.1300   0.1380   0.1429   0.1576   0.1600   0.1704   0.1705
  0.1794   0.1868   0.1918   0.1930   0.2012   0.2055   0.2061   0.2080
  0.2245   0.2298   0.2391   0.2393   0.2453   0.2520   0.2616   0.2677
  0.2758   0.2786   0.2856   0.3020   0.3034   0.3122   0.3241   0.3394
  0.3555   0.3692   0.3818   0.4012   0.4361   0.4572   0.5224   0.5817
  0.6194   0.6861   0.6885   0.7135   0.7288   0.7359   0.7428   0.7496
  0.7507   0.7692   0.7732   0.7915   0.8067   0.8069   0.8267   0.8678
  0.9032   0.9124   0.9246   0.9560   0.9614   0.9696   0.9731   1.0017
  1.0133   1.0446   1.0627   1.0667   1.1028   1.1233   1.1263   1.1839
  1.1895   1.2152   1.2360   1.2466   1.2557   1.3287   1.3339   1.3559
  1.3764   1.4215   1.4220   1.4560   1.4738   1.4829   1.5052   1.5101
  1.5543   1.5938   1.6583   1.7926   1.8410   1.9047   1.9077   1.9246
  1.9425   2.0012   2.0081   2.0209   2.0633   2.0837   2.1467   2.1700
  2.1708   2.1975   2.2543   2.2572   2.2753   2.2937   2.3225   2.3832
  2.4251   2.4682   2.5490   2.5692   2.6458   2.6608   2.6638   2.6964
  2.7367   2.8147   2.8501   2.8589   2.9735   2.9882   3.1130   3.2545
  3.4259   4.1756   4.2729   4.3163   4.3427   4.3848   4.4252   4.5035
  4.5444   4.8031
 --------------------------------------------------------------
 
          Ground-State Mulliken Net Atomic Charges

     Atom                 Charge (a.u.)
  ----------------------------------------
      1 C                    -0.029680
      2 C                    -0.488359
      3 C                    -0.178709
      4 C                    -1.127410
      5 C                     1.513212
      6 C                    -0.725764
      7 N                    -0.419385
      8 C                    -0.034058
      9 C                    -0.214860
     10 H                     0.436168
     11 H                     0.216980
     12 H                     0.218523
     13 H                     0.205400
     14 H                     0.208256
     15 H                     0.205513
     16 H                     0.214173
  ----------------------------------------
  Sum of atomic charges =     0.000000

 -----------------------------------------------------------------
                    Cartesian Multipole Moments
 -----------------------------------------------------------------
    Charge (ESU x 10^10)
                -0.0000
    Dipole Moment (Debye)
         X      -1.6041      Y       1.7108      Z       0.0009
       Tot       2.3452
    Quadrupole Moments (Debye-Ang)
        XX     -44.5840     XY      -3.6883     YY     -43.7378
        XZ      -0.0006     YZ       0.0029     ZZ     -58.9386
    Octopole Moments (Debye-Ang^2)
       XXX     -15.4741    XXY       9.1362    XYY      -8.1413
       YYY      11.1284    XXZ       0.0014    XYZ      -0.0037
       YYZ       0.0075    XZZ      -2.2569    YZZ       2.2658
       ZZZ       0.0011
    Hexadecapole Moments (Debye-Ang^3)
      XXXX    -804.8371   XXXY     -22.9437   XXYY    -195.0296
      XYYY     -18.6095   YYYY    -368.0930   XXXZ       0.0133
      XXYZ       0.0158   XYYZ      -0.0024   YYYZ       0.0147
      XXZZ    -189.9517   XYZZ      -3.4105   YYZZ     -94.5797
      XZZZ       0.0136   YZZZ       0.0026   ZZZZ     -72.5278
 -----------------------------------------------------------------
 Calculating analytic gradient of the CIS energy
 CIS relaxed dipole moment
            1
    1  -0.8146423
    2   0.5025206
    3   0.0003459
	Magnitude:	 0.957 au	 2.433 Debye
 CIS 3 State Energy is -363.5628401905
 Gradient of the state energy (including CIS Excitation Energy)
            1           2           3           4           5           6
    1  -0.0042601  -0.0043255  -0.0088618   0.0101535  -0.0037407   0.0106019
    2   0.0050705  -0.0171207  -0.0018315  -0.0126550   0.0138852   0.0030865
    3  -0.0000180   0.0000212  -0.0000277  -0.0000436   0.0000271   0.0000096
            7           8           9          10          11          12
    1  -0.0211715   0.0186951   0.0129527  -0.0066854  -0.0005816  -0.0023355
    2  -0.0326583  -0.0101090   0.0387770   0.0134533  -0.0011679   0.0016044
    3   0.0000160   0.0000042  -0.0000167   0.0000205  -0.0000010  -0.0000038
           13          14          15          16
    1   0.0005781  -0.0011030   0.0001174  -0.0000336
    2   0.0000268  -0.0008417   0.0004257   0.0000546
    3   0.0000018   0.0000097  -0.0000006   0.0000013
 Gradient time:  CPU 21.39 s  wall 5.38 s
 Geometry Optimization Parameters
   NAtoms,    NIC,     NZ,  NCons,   NDum,   NFix, NCnnct, MaxDiis
       16     116       0       0       0       0       0       0

 Cartesian Hessian Update
 Hessian updated using BFGS update


** GEOMETRY OPTIMIZATION IN DELOCALIZED INTERNAL COORDINATES **
   Searching for a Minimum

   Optimization Cycle:   4

                       Coordinates (Angstroms)
     ATOM                X               Y               Z
      1  C         2.1722723671   -0.6987546624   -0.0001546488
      2  C         2.1396406149    0.7148159770    0.0000080159
      3  C         0.9184212280    1.4340407709   -0.0001888465
      4  C        -0.2493137265    0.6769502040   -0.0001181907
      5  C        -0.2473301579   -0.7623871962    0.0000964410
      6  C         0.9814643692   -1.4557118594    0.0000831800
      7  N        -1.5743121392    1.0706490111    0.0002105250
      8  C        -1.6014863125   -1.1705187990    0.0000176134
      9  C        -2.3930676986   -0.0053111566   -0.0000430744
     10  H        -1.9032221038    2.0408279294    0.0006804244
     11  H        -1.9839865331   -2.1831461754   -0.0000885108
     12  H        -3.4692224763    0.1141684776   -0.0001385751
     13  H         3.0758881292    1.2632914382    0.0001162494
     14  H         0.8978709159    2.5173063883    0.0000695004
     15  H         3.1318733597   -1.2040219592   -0.0002434320
     16  H         1.0076051152   -2.5396458958    0.0002193100
   Point Group: c1    Number of degrees of freedom:    42


   Energy is   -363.562840190

 Hessian updated using BFGS update

 41 Hessian modes will be used to form the next step
  Hessian Eigenvalues:
     0.018594    0.019738    0.020011    0.020794    0.021683    0.022200
     0.022636    0.023004    0.023236    0.023608    0.023851    0.023984
     0.024127    0.159196    0.159825    0.160000    0.160000    0.160052
     0.162494    0.212073    0.222008    0.228405    0.246591    0.253251
     0.352337    0.357166    0.357310    0.357920    0.359366    0.364255
     0.368418    0.375876    0.401813    0.427188    0.438092    0.459918
     0.470165    0.473175    0.488473    0.549210    1.058994

 Minimum search - taking simple RFO step
 Searching for Lamda that Minimizes Along All modes
 Value Taken    Lamda =  -0.00440549
 Step Taken.  Stepsize is  0.101939

                             Maximum     Tolerance    Cnvgd?
         Gradient           0.025751      0.000300      NO
         Displacement       0.054267      0.001200      NO
         Energy change     -0.006001      0.000001      NO


 New Cartesian Coordinates Obtained by Inverse Iteration

 Displacement from previous Coordinates is:  0.131944
 ----------------------------------------------------------------
             Standard Nuclear Orientation (Angstroms)
    I     Atom           X                Y                Z
 ----------------------------------------------------------------
    1      C       2.1592737071    -0.6909203770    -0.0001229599
    2      C       2.1454387648     0.7305651800     0.0000854142
    3      C       0.9303088300     1.4357111107    -0.0000905138
    4      C      -0.2458936528     0.6821093368    -0.0000961803
    5      C      -0.2576312846    -0.7651512608     0.0000694457
    6      C       0.9688485674    -1.4446965533     0.0000852759
    7      N      -1.5579486066     1.0719278321     0.0001280227
    8      C      -1.6198162158    -1.1755543293    -0.0000265060
    9      C      -2.3900723559    -0.0285308000     0.0001164909
   10      H      -1.8771427798     2.0322595143     0.0003285350
   11      H      -1.9997389917    -2.1860510453    -0.0001390991
   12      H      -3.4621413775     0.0909620283     0.0000927075
   13      H       3.0810008395     1.2763061004     0.0001818676
   14      H       0.9137240289     2.5193061163     0.0000884483
   15      H       3.1122497407    -1.2076513517    -0.0003175108
   16      H       1.0026357377    -2.5280390090     0.0001425434
 ----------------------------------------------------------------
 Molecular Point Group                 C1    NOp =  1
 Largest Abelian Subgroup              C1    NOp =  1
 Nuclear Repulsion Energy =         398.98678047 hartrees
 There are       31 alpha and       31 beta electrons
 Applying Cartesian multipole field
    Component          Value
    ---------          -----
     (2,0,0)        1.00000E-11
     (0,2,0)        2.00000E-11
     (0,0,2)       -3.00000E-11
 Nucleus-field energy     =     0.0000000118 hartrees
 Requested basis set is 6-31+G(d)
 There are 59 shells and 185 basis functions
 A cutoff of  1.0D-12 yielded   1657 shell pairs
 There are     17105 function pairs
 Smallest overlap matrix eigenvalue = 1.35E-06
 Guess MOs from SCF MO coefficient file

 -----------------------------------------------------------------------
  General SCF calculation program by
  Eric Jon Sundstrom, Paul Horn, Yuezhi Mao, Dmitri Zuev, Alec White,
  David Stuck, Shaama M.S., Shane Yost, Joonho Lee, David Small,
  Daniel Levine, Susi Lehtola, Hugh Burton, Evgeny Epifanovsky,
  Bang C. Huynh
 -----------------------------------------------------------------------
 Exchange:     0.2500 Hartree-Fock + 0.7500 mPW91
 Correlation:  1.0000 PW91
 Using SG-1 standard quadrature grid
 using 4 threads for integral computing
 -------------------------------------------------------
 OpenMP Integral computing Module                
 Release: version 1.0, May 2013, Q-Chem Inc. Pittsburgh 
 -------------------------------------------------------
 A restricted SCF calculation will be
 performed using DIIS
 SCF converges when DIIS error is below 1.0e-08
 ---------------------------------------
  Cycle       Energy         DIIS error
 ---------------------------------------
    1    -363.7441228548      4.87e-04  
    2    -363.7454658105      1.14e-04  
    3    -363.7454685154      1.12e-04  
    4    -363.7455161116      3.69e-05  
    5    -363.7455214222      1.29e-05  
    6    -363.7455221996      3.08e-06  
    7    -363.7455222427      1.15e-06  
    8    -363.7455222487      3.61e-07  
    9    -363.7455222493      1.61e-07  
   10    -363.7455222494      3.32e-08  
   11    -363.7455222494      1.73e-08  
   12    -363.7455222494      3.38e-09  Convergence criterion met
 ---------------------------------------
 SCF time:   CPU 34.37s  wall 8.00s 
 SCF   energy in the final basis set =     -363.7455222494
 Total energy in the final basis set =     -363.7455222494
 
 Direct TDDFT/TDA calculation will be performed
 Exchange:     0.2500 Hartree-Fock + 0.7500 mPW91
 Correlation:  1.0000 PW91
 Using SG-1 standard quadrature grid
 Singlet excitation energies requested
 CIS energy converged when residual is below 10e- 6
 ---------------------------------------------------
 Iter    Rts Conv    Rts Left    Ttl Dev     Max Dev
 ---------------------------------------------------
   1         0           3      0.003708    0.001830
   2         0           3      0.001504    0.000807
   3         0           3      0.000317    0.000161
   4         0           3      0.000129    0.000065
   5         0           3      0.000045    0.000023
   6         1           2      0.000011    0.000006
   7         1           2      0.000004    0.000002
   8         3           0      0.000001    0.000001    Roots Converged
 ---------------------------------------------------
 
 ---------------------------------------------------
         TDDFT/TDA Excitation Energies              
 ---------------------------------------------------

 Excited state   1: excitation energy (eV) =    4.8942
 Total energy for state  1:                  -363.56566248 au
    Multiplicity: Singlet
    Trans. Mom.:  0.0026 X   0.5329 Y  -0.0002 Z
    Strength   :     0.0340467850
    D(   30) --> V(    1) amplitude =  0.7031
    D(   31) --> V(    1) amplitude = -0.4756
    D(   31) --> V(    4) amplitude =  0.4582

 Excited state   2: excitation energy (eV) =    4.9486
 Total energy for state  2:                  -363.56366458 au
    Multiplicity: Singlet
    Trans. Mom.:  0.7979 X  -0.4506 Y  -0.0006 Z
    Strength   :     0.1018088037
    D(   30) --> V(    1) amplitude =  0.3567
    D(   30) --> V(    4) amplitude = -0.2430
    D(   31) --> V(    1) amplitude =  0.7774
    D(   31) --> V(    4) amplitude =  0.3976

 Excited state   3: excitation energy (eV) =    4.9690
 Total energy for state  3:                  -363.56291354 au
    Multiplicity: Singlet
    Trans. Mom.:  0.0041 X  -0.0014 Y   0.1352 Z
    Strength   :     0.0022278461
    D(   31) --> V(    2) amplitude =  0.9947
 
 ---------------------------------------------------
 Calculating Relaxed Density
 ---------------------------------------------------
 Iter    Rts Conv    Rts Left    Ttl Dev     Max Dev
 ---------------------------------------------------
   1         0           3      0.001553    0.000854
   2         0           3      0.000615    0.000311
   3         0           3      0.000140    0.000062
   4         0           3      0.000037    0.000019
   5         0           3      0.000009    0.000004
   6         3           0      0.000000    0.000000    Roots Converged
 ---------------------------------------------------
  SETman timing summary (seconds)
  CPU time               110.38s
  System time              0.00s
  Wall time               27.75s
 
 --------------------------------------------------------------
 
                    Orbital Energies (a.u.)
 --------------------------------------------------------------
 
 Alpha MOs
 -- Occupied --
-14.4676 -10.2880 -10.2865 -10.2561 -10.2519 -10.2518 -10.2506 -10.2468
-10.2422  -1.0152  -0.8615  -0.8100  -0.7575  -0.7410  -0.6471  -0.6175
 -0.6020  -0.5576  -0.5051  -0.4866  -0.4531  -0.4465  -0.4400  -0.4249
 -0.4096  -0.3697  -0.3503  -0.3462  -0.2948  -0.2329  -0.2171
 -- Virtual --
 -0.0162   0.0005   0.0207   0.0209   0.0256   0.0409   0.0416   0.0497
  0.0637   0.0643   0.0694   0.0711   0.0895   0.0931   0.1104   0.1109
  0.1180   0.1299   0.1383   0.1440   0.1586   0.1604   0.1703   0.1710
  0.1784   0.1881   0.1916   0.1929   0.2019   0.2056   0.2060   0.2071
  0.2246   0.2309   0.2380   0.2404   0.2463   0.2516   0.2641   0.2674
  0.2756   0.2776   0.2865   0.3006   0.3052   0.3141   0.3227   0.3382
  0.3534   0.3731   0.3845   0.4045   0.4388   0.4573   0.5222   0.5818
  0.6204   0.6869   0.6884   0.7141   0.7245   0.7351   0.7436   0.7504
  0.7518   0.7679   0.7706   0.7923   0.8071   0.8092   0.8283   0.8677
  0.9057   0.9151   0.9279   0.9537   0.9606   0.9695   0.9736   1.0017
  1.0130   1.0457   1.0636   1.0751   1.1048   1.1227   1.1258   1.1806
  1.1922   1.2148   1.2373   1.2469   1.2575   1.3308   1.3315   1.3537
  1.3789   1.4232   1.4249   1.4567   1.4708   1.4827   1.5073   1.5116
  1.5473   1.5981   1.6611   1.8000   1.8461   1.9021   1.9061   1.9315
  1.9421   2.0033   2.0089   2.0208   2.0687   2.0870   2.1483   2.1625
  2.1710   2.2045   2.2545   2.2625   2.2727   2.2900   2.3224   2.3829
  2.4300   2.4637   2.5563   2.5691   2.6466   2.6629   2.6683   2.7025
  2.7369   2.8173   2.8534   2.8606   2.9786   2.9874   3.1243   3.2545
  3.4289   4.1728   4.2743   4.3184   4.3488   4.3871   4.4242   4.5044
  4.5451   4.8034
 --------------------------------------------------------------
 
          Ground-State Mulliken Net Atomic Charges

     Atom                 Charge (a.u.)
  ----------------------------------------
      1 C                    -0.011211
      2 C                    -0.507549
      3 C                    -0.124566
      4 C                    -1.113996
      5 C                     1.479185
      6 C                    -0.796318
      7 N                    -0.441287
      8 C                     0.035753
      9 C                    -0.224319
     10 H                     0.435845
     11 H                     0.219391
     12 H                     0.217870
     13 H                     0.207267
     14 H                     0.207309
     15 H                     0.203586
     16 H                     0.213037
  ----------------------------------------
  Sum of atomic charges =     0.000000

 -----------------------------------------------------------------
                    Cartesian Multipole Moments
 -----------------------------------------------------------------
    Charge (ESU x 10^10)
                -0.0000
    Dipole Moment (Debye)
         X      -1.6139      Y       1.5942      Z       0.0003
       Tot       2.2685
    Quadrupole Moments (Debye-Ang)
        XX     -44.6656     XY      -3.1511     YY     -43.7217
        XZ      -0.0006     YZ       0.0019     ZZ     -58.8515
    Octopole Moments (Debye-Ang^2)
       XXX     -15.1923    XXY       8.5331    XYY      -8.0296
       YYY      10.4161    XXZ      -0.0006    XYZ      -0.0010
       YYZ       0.0020    XZZ      -2.3188    YZZ       2.0708
       ZZZ      -0.0032
    Hexadecapole Moments (Debye-Ang^3)
      XXXX    -804.7371   XXXY     -22.2842   XXYY    -194.4765
      XYYY     -20.5534   YYYY    -368.6870   XXXZ       0.0030
      XXYZ       0.0117   XYYZ       0.0017   YYYZ       0.0073
      XXZZ    -189.2428   XYZZ      -4.4632   YYZZ     -94.3309
      XZZZ       0.0111   YZZZ      -0.0007   ZZZZ     -72.1807
 -----------------------------------------------------------------
 Calculating analytic gradient of the CIS energy
 CIS relaxed dipole moment
            1
    1   2.4361229
    2  -2.7223382
    3   0.0037788
	Magnitude:	 3.653 au	 9.285 Debye
 CIS 3 State Energy is -363.5629135437
 Gradient of the state energy (including CIS Excitation Energy)
            1           2           3           4           5           6
    1   0.0024794   0.0013664   0.0188795  -0.0114014  -0.0013891  -0.0095110
    2  -0.0148727   0.0322752   0.0056182   0.0168581  -0.0173300  -0.0062224
    3  -0.0000479   0.0000607  -0.0000139  -0.0001054   0.0000677   0.0000658
            7           8           9          10          11          12
    1   0.0305035  -0.0262815  -0.0204931   0.0115746   0.0004784   0.0035598
    2   0.0524398   0.0128051  -0.0588768  -0.0225553   0.0018632  -0.0035519
    3  -0.0000145  -0.0000408   0.0000338   0.0000329  -0.0000050  -0.0000058
           13          14          15          16
    1  -0.0005395   0.0018981  -0.0002098  -0.0009144
    2   0.0000440   0.0008611   0.0000678   0.0005768
    3   0.0000032  -0.0000035  -0.0000171  -0.0000103
 Gradient time:  CPU 21.36 s  wall 5.37 s
 Geometry Optimization Parameters
   NAtoms,    NIC,     NZ,  NCons,   NDum,   NFix, NCnnct, MaxDiis
       16     116       0       0       0       0       0       0

 Cartesian Hessian Update
 Hessian updated using BFGS update


** GEOMETRY OPTIMIZATION IN DELOCALIZED INTERNAL COORDINATES **
   Searching for a Minimum

   Optimization Cycle:   5

                       Coordinates (Angstroms)
     ATOM                X               Y               Z
      1  C         2.1592737071   -0.6909203770   -0.0001229599
      2  C         2.1454387648    0.7305651800    0.0000854142
      3  C         0.9303088300    1.4357111107   -0.0000905138
      4  C        -0.2458936528    0.6821093368   -0.0000961803
      5  C        -0.2576312846   -0.7651512608    0.0000694457
      6  C         0.9688485674   -1.4446965533    0.0000852759
      7  N        -1.5579486066    1.0719278321    0.0001280227
      8  C        -1.6198162158   -1.1755543293   -0.0000265060
      9  C        -2.3900723559   -0.0285308000    0.0001164909
     10  H        -1.8771427798    2.0322595143    0.0003285350
     11  H        -1.9997389917   -2.1860510453   -0.0001390991
     12  H        -3.4621413775    0.0909620283    0.0000927075
     13  H         3.0810008395    1.2763061004    0.0001818676
     14  H         0.9137240289    2.5193061163    0.0000884483
     15  H         3.1122497407   -1.2076513517   -0.0003175108
     16  H         1.0026357377   -2.5280390090    0.0001425434
   Point Group: c1    Number of degrees of freedom:    42


   Energy is   -363.562913544

 Hessian updated using BFGS update

 42 Hessian modes will be used to form the next step
  Hessian Eigenvalues:
     0.018593    0.019738    0.020011    0.020794    0.021683    0.022200
     0.022636    0.023004    0.023236    0.023608    0.023851    0.023984
     0.024127    0.159767    0.159797    0.160000    0.160000    0.160012
     0.160100    0.162453    0.219616    0.222026    0.227600    0.247226
     0.253771    0.357163    0.357234    0.357837    0.358100    0.364164
     0.364595    0.369853    0.393259    0.426602    0.431935    0.453649
     0.467495    0.472689    0.483957    0.511597    0.613926    1.802527

 Minimum search - taking simple RFO step
 Searching for Lamda that Minimizes Along All modes
 Value Taken    Lamda =  -0.00430268
 Step Taken.  Stepsize is  0.061489

                             Maximum     Tolerance    Cnvgd?
         Gradient           0.042263      0.000300      NO
         Displacement       0.035627      0.001200      NO
         Energy change     -0.000073      0.000001      NO


 New Cartesian Coordinates Obtained by Inverse Iteration

 Displacement from previous Coordinates is:  0.086524
 ----------------------------------------------------------------
             Standard Nuclear Orientation (Angstroms)
    I     Atom           X                Y                Z
 ----------------------------------------------------------------
    1      C       2.1696344424    -0.6943931713    -0.0001193872
    2      C       2.1444245356     0.7203187520     0.0000133515
    3      C       0.9220218509     1.4316633795     0.0001564834
    4      C      -0.2498834583     0.6782494385     0.0001985762
    5      C      -0.2509956901    -0.7647569570    -0.0000067751
    6      C       0.9767260811    -1.4502775366    -0.0001710474
    7      N      -1.5685553380     1.0713894751     0.0000456348
[...]
 CIS 3 State Energy is -363.5647930280
 Gradient of the state energy (including CIS Excitation Energy)
            1           2           3           4           5           6
    1  -0.0038361  -0.0012441  -0.0075064   0.0065519   0.0006950   0.0049500
    2   0.0049599  -0.0114747  -0.0049135  -0.0050057   0.0079698   0.0050633
    3  -0.0000934   0.0001443  -0.0000645  -0.0003183   0.0001135   0.0001178
            7           8           9          10          11          12
    1  -0.0104259   0.0073316   0.0094395  -0.0042402  -0.0001977  -0.0010169
    2  -0.0208381  -0.0049277   0.0203217   0.0086933  -0.0003323   0.0010766
    3   0.0001146  -0.0000042  -0.0000258   0.0000625  -0.0000128  -0.0000188
           13          14          15          16
    1  -0.0000586  -0.0005336  -0.0001385   0.0002301
    2  -0.0000051  -0.0005389  -0.0000166  -0.0000319
    3   0.0000266   0.0000065  -0.0000518   0.0000040
 Gradient time:  CPU 21.56 s  wall 5.42 s
 Geometry Optimization Parameters
   NAtoms,    NIC,     NZ,  NCons,   NDum,   NFix, NCnnct, MaxDiis
       16     116       0       0       0       0       0       0

 Cartesian Hessian Update
 Hessian updated using BFGS update


** GEOMETRY OPTIMIZATION IN DELOCALIZED INTERNAL COORDINATES **
   Searching for a Minimum

   Optimization Cycle:  49

                       Coordinates (Angstroms)
     ATOM                X               Y               Z
      1  C         2.1685306335   -0.6950314353   -0.0006391353
      2  C         2.1437910069    0.7228826878    0.0005885613
      3  C         0.9238009874    1.4355612644   -0.0002536269
      4  C        -0.2506070528    0.6796848242   -0.0010135648
      5  C        -0.2525429104   -0.7676647231   -0.0002728819
      6  C         0.9753120979   -1.4538483703   -0.0002229412
      7  N        -1.5672322860    1.0732736829    0.0001095291
      8  C        -1.6114555856   -1.1715371069    0.0005811093
      9  C        -2.3932045636   -0.0165125417    0.0002566216
     10  H        -1.8926926492    2.0376173604   -0.0005266457
     11  H        -1.9922967597   -2.1834441575    0.0008937793
     12  H        -3.4672986998    0.1058487069    0.0001346340
     13  H         3.0790999812    1.2710433402    0.0019030497
     14  H         0.9052794342    2.5194465718    0.0005439121
     15  H         3.1245381504   -1.2070925055   -0.0018795861
     16  H         1.0100731667   -2.5376751055    0.0003231667
   Point Group: c1    Number of degrees of freedom:    42


   Energy is   -363.564793028

 Hessian updated using BFGS update

 42 Hessian modes will be used to form the next step
  Hessian Eigenvalues:
     0.019201    0.020076    0.020504    0.021614    0.022488    0.022953
     0.023036    0.023746    0.023932    0.024087    0.024289    0.027610
     0.110728    0.159877    0.160073    0.160217    0.160321    0.161337
     0.163370    0.165700    0.222095    0.235063    0.247323    0.253761
     0.296333    0.357235    0.357476    0.357977    0.358385    0.364298
     0.365580    0.376248    0.413787    0.426068    0.440448    0.462845
     0.467648    0.483362    0.530868    0.599774    0.890669    1.343696

 Minimum search - taking simple RFO step
 Searching for Lamda that Minimizes Along All modes
 Value Taken    Lamda =  -0.00197876
 Step Taken.  Stepsize is  0.109702

                             Maximum     Tolerance    Cnvgd?
         Gradient           0.013663      0.000300      NO
         Displacement       0.059827      0.001200      NO
         Energy change     -0.000149      0.000001      NO


 New Cartesian Coordinates Obtained by Inverse Iteration

 Displacement from previous Coordinates is:  0.104565
 ----------------------------------------------------------------
             Standard Nuclear Orientation (Angstroms)
    I     Atom           X                Y                Z
 ----------------------------------------------------------------
    1      C       2.1640241418    -0.6955618064     0.0024698157
    2      C       2.1446612206     0.7344144519    -0.0082363616
    3      C       0.9322156239     1.4506160886     0.0042176323
    4      C      -0.2514767664     0.6836926817     0.0142663878
    5      C      -0.2589095903    -0.7751919449     0.0013632293
    6      C       0.9703494860    -1.4642866090    -0.0061461601
    7      N      -1.5611187384     1.0784250277     0.0057349678
    8      C      -1.6196334308    -1.1723566011     0.0024999624
    9      C      -2.3990906854    -0.0275237781    -0.0003289892
   10      H      -1.8779624323     2.0346886976    -0.0078447033
   11      H      -1.9978580373    -2.1849170361     0.0007120070
   12      H      -3.4719304627     0.0932624915    -0.0058587349
   13      H       3.0856388205     1.2729838156    -0.0154261070
   14      H       0.9137011991     2.5347613747     0.0069878472
   15      H       3.1227624578    -1.2028880443     0.0138969821
   16      H       1.0077221452    -2.5475663166    -0.0077817944
 ----------------------------------------------------------------
 Molecular Point Group                 C1    NOp =  1
 Largest Abelian Subgroup              C1    NOp =  1
 Nuclear Repulsion Energy =         397.52740389 hartrees
 There are       31 alpha and       31 beta electrons
 Applying Cartesian multipole field
    Component          Value
    ---------          -----
     (2,0,0)        1.00000E-11
     (0,2,0)        2.00000E-11
     (0,0,2)       -3.00000E-11
 Nucleus-field energy     =     0.0000000119 hartrees
 Requested basis set is 6-31+G(d)
 There are 59 shells and 185 basis functions
 A cutoff of  1.0D-12 yielded   1656 shell pairs
 There are     17099 function pairs
 Smallest overlap matrix eigenvalue = 1.44E-06
 Guess MOs from SCF MO coefficient file

 -----------------------------------------------------------------------
  General SCF calculation program by
  Eric Jon Sundstrom, Paul Horn, Yuezhi Mao, Dmitri Zuev, Alec White,
  David Stuck, Shaama M.S., Shane Yost, Joonho Lee, David Small,
  Daniel Levine, Susi Lehtola, Hugh Burton, Evgeny Epifanovsky,
  Bang C. Huynh
 -----------------------------------------------------------------------
 Exchange:     0.2500 Hartree-Fock + 0.7500 mPW91
 Correlation:  1.0000 PW91
 Using SG-1 standard quadrature grid
 using 4 threads for integral computing
 -------------------------------------------------------
 OpenMP Integral computing Module                
 Release: version 1.0, May 2013, Q-Chem Inc. Pittsburgh 
 -------------------------------------------------------
 A restricted SCF calculation will be
 performed using DIIS
 SCF converges when DIIS error is below 1.0e-08
 ---------------------------------------
  Cycle       Energy         DIIS error
 ---------------------------------------
    1    -363.7421846490      4.99e-04  
    2    -363.7434283867      8.69e-05  
    3    -363.7434251829      9.46e-05  
    4    -363.7434633706      1.63e-05  
    5    -363.7434644528      5.32e-06  
    6    -363.7434645756      2.15e-06  
    7    -363.7434645942      7.06e-07  
    8    -363.7434645964      2.57e-07  
    9    -363.7434645967      1.31e-07  
   10    -363.7434645968      2.69e-08  
   11    -363.7434645968      1.24e-08  
   12    -363.7434645968      1.98e-09  Convergence criterion met
 ---------------------------------------
 SCF time:   CPU 34.75s  wall 9.00s 
 SCF   energy in the final basis set =     -363.7434645968
 Total energy in the final basis set =     -363.7434645968
 
 Direct TDDFT/TDA calculation will be performed
 Exchange:     0.2500 Hartree-Fock + 0.7500 mPW91
 Correlation:  1.0000 PW91
 Using SG-1 standard quadrature grid
 Singlet excitation energies requested
 CIS energy converged when residual is below 10e- 6
 ---------------------------------------------------
 Iter    Rts Conv    Rts Left    Ttl Dev     Max Dev
 ---------------------------------------------------
   1         0           3      0.003718    0.001841
   2         0           3      0.001697    0.000758
   3         0           3      0.000323    0.000160
   4         0           3      0.000123    0.000060
   5         0           3      0.000041    0.000021
   6         0           3      0.000012    0.000005
   7         1           2      0.000004    0.000002
   8         3           0      0.000002    0.000001    Roots Converged
 ---------------------------------------------------
 
 ---------------------------------------------------
         TDDFT/TDA Excitation Energies              
 ---------------------------------------------------

 Excited state   1: excitation energy (eV) =    4.8309
 Total energy for state  1:                  -363.56593102 au
    Multiplicity: Singlet
    Trans. Mom.: -0.3322 X  -0.3559 Y  -0.0078 Z
    Strength   :     0.0280616666
    D(   30) --> V(    1) amplitude =  0.7933
    D(   31) --> V(    3) amplitude = -0.5540

 Excited state   2: excitation energy (eV) =    4.8975
 Total energy for state  2:                  -363.56348573 au
    Multiplicity: Singlet
    Trans. Mom.: -0.7361 X   0.6113 Y  -0.0074 Z
    Strength   :     0.1098655900
    D(   30) --> V(    3) amplitude =  0.2850
    D(   31) --> V(    1) amplitude =  0.8946

 Excited state   3: excitation energy (eV) =    4.9847
 Total energy for state  3:                  -363.56028005 au
    Multiplicity: Singlet
    Trans. Mom.: -0.0846 X   0.0214 Y   0.1397 Z
    Strength   :     0.0033135309
    D(   31) --> V(    2) amplitude =  0.9904
 
 ---------------------------------------------------
 Calculating Relaxed Density
 ---------------------------------------------------
 Iter    Rts Conv    Rts Left    Ttl Dev     Max Dev
 ---------------------------------------------------
   1         0           3      0.001519    0.000872
   2         0           3      0.000616    0.000326
   3         0           3      0.000143    0.000066
   4         0           3      0.000041    0.000021
   5         1           2      0.000007    0.000004
   6         1           2      0.000002    0.000001
   7         3           0      0.000000    0.000000    Roots Converged
 ---------------------------------------------------
  SETman timing summary (seconds)
  CPU time               115.92s
  System time              0.00s
  Wall time               29.17s
 
 --------------------------------------------------------------
 
                    Orbital Energies (a.u.)
 --------------------------------------------------------------
 
 Alpha MOs
 -- Occupied --
-14.4682 -10.2893 -10.2889 -10.2586 -10.2541 -10.2538 -10.2536 -10.2494
-10.2430  -1.0136  -0.8579  -0.8098  -0.7553  -0.7399  -0.6465  -0.6180
 -0.6001  -0.5569  -0.5060  -0.4860  -0.4518  -0.4478  -0.4384  -0.4234
 -0.4091  -0.3699  -0.3510  -0.3441  -0.2951  -0.2312  -0.2174
 -- Virtual --
 -0.0182   0.0006   0.0190   0.0207   0.0255   0.0406   0.0415   0.0494
  0.0638   0.0643   0.0691   0.0711   0.0889   0.0931   0.1101   0.1107
  0.1182   0.1296   0.1378   0.1437   0.1584   0.1601   0.1695   0.1701
  0.1778   0.1882   0.1906   0.1926   0.2011   0.2041   0.2046   0.2068
  0.2236   0.2302   0.2371   0.2397   0.2458   0.2499   0.2632   0.2675
  0.2743   0.2779   0.2856   0.2985   0.3028   0.3124   0.3218   0.3358
  0.3489   0.3706   0.3804   0.4008   0.4358   0.4559   0.5190   0.5733
  0.6101   0.6850   0.6897   0.7139   0.7222   0.7350   0.7422   0.7493
  0.7521   0.7678   0.7679   0.7909   0.8059   0.8065   0.8254   0.8664
  0.9056   0.9136   0.9263   0.9545   0.9612   0.9685   0.9730   1.0020
  1.0101   1.0452   1.0635   1.0763   1.1029   1.1213   1.1240   1.1794
  1.1897   1.2130   1.2348   1.2447   1.2555   1.3276   1.3319   1.3537
  1.3758   1.4160   1.4203   1.4504   1.4705   1.4842   1.5055   1.5089
  1.5488   1.5960   1.6557   1.7949   1.8376   1.9015   1.9031   1.9182
  1.9360   2.0001   2.0082   2.0204   2.0573   2.0710   2.1401   2.1520
  2.1641   2.2017   2.2418   2.2541   2.2719   2.2806   2.3144   2.3781
  2.4237   2.4614   2.5481   2.5626   2.6398   2.6459   2.6634   2.6931
  2.7293   2.8072   2.8444   2.8524   2.9750   2.9821   3.1141   3.2446
  3.4031   4.1684   4.2660   4.3183   4.3435   4.3835   4.4237   4.5008
  4.5423   4.7946
 --------------------------------------------------------------
 
          Ground-State Mulliken Net Atomic Charges

     Atom                 Charge (a.u.)
  ----------------------------------------
      1 C                    -0.030469
      2 C                    -0.481333
      3 C                    -0.186898
      4 C                    -1.085917
      5 C                     1.464559
      6 C                    -0.744136
      7 N                    -0.437959
      8 C                     0.011561
      9 C                    -0.218043
     10 H                     0.436764
     11 H                     0.219028
     12 H                     0.218867
     13 H                     0.206814
     14 H                     0.208679
     15 H                     0.203780
     16 H                     0.214705
  ----------------------------------------
  Sum of atomic charges =     0.000000

 -----------------------------------------------------------------
                    Cartesian Multipole Moments
 -----------------------------------------------------------------
    Charge (ESU x 10^10)
                -0.0000
    Dipole Moment (Debye)
         X      -1.6136      Y       1.5880      Z      -0.0186
       Tot       2.2640
    Quadrupole Moments (Debye-Ang)
        XX     -44.6777     XY      -3.1946     YY     -43.6186
        XZ       0.0772     YZ      -0.0533     ZZ     -59.0061
    Octopole Moments (Debye-Ang^2)
       XXX     -15.1708    XXY       8.6013    XYY      -7.9370
       YYY      10.4875    XXZ      -0.1965    XYZ       0.0014
       YYZ      -0.1697    XZZ      -2.3599    YZZ       2.0793
       ZZZ      -0.2352
    Hexadecapole Moments (Debye-Ang^3)
      XXXX    -806.9162   XXXY     -22.2380   XXYY    -196.0749
      XYYY     -20.4288   YYYY    -371.8308   XXXZ       1.1002
      XXYZ      -0.6389   XYYZ       0.3538   YYYZ      -0.3643
      XXZZ    -190.3724   XYZZ      -4.1854   YYZZ     -95.4047
      XZZZ       0.5512   YZZZ      -0.3521   ZZZZ     -72.6328
 -----------------------------------------------------------------
 Calculating analytic gradient of the CIS energy
 CIS relaxed dipole moment
            1
    1   2.4156259
    2  -2.7008699
    3  -0.0792208
	Magnitude:	 3.624 au	 9.212 Debye
 CIS 3 State Energy is -363.5602800488
 Gradient of the state energy (including CIS Excitation Energy)
            1           2           3           4           5           6
    1   0.0104199   0.0025107   0.0246479  -0.0213829  -0.0031061  -0.0139198
    2  -0.0140988   0.0345402   0.0161006   0.0142355  -0.0239243  -0.0167643
    3   0.0017040  -0.0021476  -0.0004643   0.0042368  -0.0019147  -0.0024419
            7           8           9          10          11          12
    1   0.0317498  -0.0222847  -0.0261563   0.0123359   0.0007188   0.0027302
    2   0.0614995   0.0155261  -0.0611969  -0.0256804   0.0010213  -0.0030973
    3   0.0001186   0.0012189  -0.0011489  -0.0007382   0.0001027   0.0000865
           13          14          15          16
    1   0.0002200   0.0016948   0.0005129  -0.0006911
    2   0.0000488   0.0015170   0.0000844   0.0001885
    3  -0.0001371   0.0004150   0.0007804   0.0003299
 Gradient time:  CPU 21.40 s  wall 5.38 s
 Geometry Optimization Parameters
   NAtoms,    NIC,     NZ,  NCons,   NDum,   NFix, NCnnct, MaxDiis
       16     116       0       0       0       0       0       0

 Cartesian Hessian Update
 Hessian updated using BFGS update


** GEOMETRY OPTIMIZATION IN DELOCALIZED INTERNAL COORDINATES **
   Searching for a Minimum

   Optimization Cycle:  50

                       Coordinates (Angstroms)
     ATOM                X               Y               Z
      1  C         2.1640241418   -0.6955618064    0.0024698157
      2  C         2.1446612206    0.7344144519   -0.0082363616
      3  C         0.9322156239    1.4506160886    0.0042176323
      4  C        -0.2514767664    0.6836926817    0.0142663878
      5  C        -0.2589095903   -0.7751919449    0.0013632293
      6  C         0.9703494860   -1.4642866090   -0.0061461601
      7  N        -1.5611187384    1.0784250277    0.0057349678
      8  C        -1.6196334308   -1.1723566011    0.0024999624
      9  C        -2.3990906854   -0.0275237781   -0.0003289892
     10  H        -1.8779624323    2.0346886976   -0.0078447033
     11  H        -1.9978580373   -2.1849170361    0.0007120070
     12  H        -3.4719304627    0.0932624915   -0.0058587349
     13  H         3.0856388205    1.2729838156   -0.0154261070
     14  H         0.9137011991    2.5347613747    0.0069878472
     15  H         3.1227624578   -1.2028880443    0.0138969821
     16  H         1.0077221452   -2.5475663166   -0.0077817944
   Point Group: c1    Number of degrees of freedom:    42


   Energy is   -363.560280049

 Hessian updated using BFGS update

 42 Hessian modes will be used to form the next step
  Hessian Eigenvalues:
     0.019211    0.020101    0.020713    0.021615    0.022589    0.022953
     0.023040    0.023920    0.023970    0.024093    0.024305    0.027635
     0.158819    0.159882    0.160091    0.160250    0.160532    0.161349
     0.163384    0.183870    0.222610    0.235204    0.248024    0.254074
     0.297052    0.357235    0.357484    0.357987    0.358387    0.364304
     0.365578    0.377090    0.413787    0.426068    0.441163    0.463143
     0.468357    0.483988    0.531039    0.623147    1.342805    2.149756

 Minimum search - taking simple RFO step
 Searching for Lamda that Minimizes Along All modes
 Value Taken    Lamda =  -0.00465966
 Step Taken.  Stepsize is  0.083424

                             Maximum     Tolerance    Cnvgd?
         Gradient           0.041536      0.000300      NO
         Displacement       0.043851      0.001200      NO
         Energy change      0.004513      0.000001      NO


 New Cartesian Coordinates Obtained by Inverse Iteration

 Displacement from previous Coordinates is:  0.079318
 ----------------------------------------------------------------
             Standard Nuclear Orientation (Angstroms)
    I     Atom           X                Y                Z
 ----------------------------------------------------------------
    1      C       2.1679498162    -0.6953835142     0.0008570799
    2      C       2.1443734141     0.7256841196    -0.0013977938
    3      C       0.9257435228     1.4389334824     0.0012793559
    4      C      -0.2509177647     0.6807579687     0.0031660408
    5      C      -0.2540559999    -0.7693993428     0.0006332670
    6      C       0.9741591124    -1.4560372435    -0.0004773677
    7      N      -1.5659921990     1.0747533373     0.0012878394
    8      C      -1.6135092585    -1.1716328131    -0.0003895507
    9      C      -2.3951162254    -0.0191834829     0.0005581980
   10      H      -1.8890189276     2.0369829275    -0.0019997902
   11      H      -1.9936051295    -2.1837621685    -0.0009915915
   12      H      -3.4687975948     0.1025552779    -0.0001808030
   13      H       3.0809864630     1.2716250494    -0.0037851010
   14      H       0.9069709277     2.5229205285     0.0012144977
   15      H       3.1244963867    -1.2065021096     0.0024096093
   16      H       1.0094284077    -2.5397595240    -0.0016579090
 ----------------------------------------------------------------
 Molecular Point Group                 C1    NOp =  1
 Largest Abelian Subgroup              C1    NOp =  1
 Nuclear Repulsion Energy =         398.27288943 hartrees
 There are       31 alpha and       31 beta electrons


 *******************************************
 **  MAXIMUM OPTIMIZATION CYCLES REACHED  **
 *******************************************

 Q-Chem fatal error occurred in module 0, line  455:

 Maximum optimization cycles reached

