
Running Job 1 of 1 QfuncsBMK-VI-2nd.in
qchem QfuncsBMK-VI-2nd.in_118255.0 /scratch/scaparas/job_3584465/qchem118255/ 0
/cm/shared/apps/spack/cpu/opt/spack/linux-centos8-zen2/gcc-10.2.0/qchem-5.3-5qddma6gy34jvefiv7mbcb7qm253n45r/exe/qcprog.exe_s QfuncsBMK-VI-2nd.in_118255.0 /scratch/scaparas/job_3584465/qchem118255/
                  Welcome to Q-Chem
     A Quantum Leap Into The Future Of Chemistry


 Q-Chem 5.3, Q-Chem, Inc., Pleasanton, CA (2020)

 License issued to: University of California, San Diego (site)

 Yihan Shao,  Zhengting Gan,  E. Epifanovsky,  A. T. B. Gilbert,  M. Wormit,  
 J. Kussmann,  A. W. Lange,  A. Behn,  Jia Deng,  Xintian Feng,  D. Ghosh,  
 M. Goldey,  P. R. Horn,  L. D. Jacobson,  I. Kaliman,  T. Kus,  A. Landau,  
 Jie Liu,  E. I. Proynov,  R. M. Richard,  R. P. Steele,  E. J. Sundstrom,  
 H. L. Woodcock III,  P. M. Zimmerman,  D. Zuev,  B. Alam,  B. Albrecht,  
 A. Aldossary,  E. Alguire,  S. A. Baeppler,  D. Barton,  Z. Benda,  
 Y. A. Bernard,  E. J. Berquist,  K. B. Bravaya,  H. Burton,  K. Carter-Fenk,  
 D. Casanova,  Chun-Min Chang,  Yunqing Chen,  A. Chien,  K. D. Closser,  
 M. P. Coons,  S. Coriani,  S. Dasgupta,  A. L. Dempwolff,  M. Diedenhofen,  
 Hainam Do,  R. G. Edgar,  Po-Tung Fang,  S. Faraji,  S. Fatehi,  
 Qingguo Feng,  J. Fosso-Tande,  J. Gayvert,  Qinghui Ge,  A. Ghysels,  
 G. Gidofalvi,  J. Gomes,  J. Gonthier,  S. Gulania,  A. Gunina,  D. Hait,  
 M. W. D. Hanson-Heine,  S. Hammes-Schiffer,  P. H. P. Harbach,  
 A. W. Hauser,  M. F. Herbst,  J. E. Herr,  E. G. Hohenstein,  Z. C. Holden,  
 S. Houck,  Kerwin Hui,  B. C. Huynh,  M. Ivanov,  T.-C. Jagau,  Hyunjun Ji,  
 B. Kaduk,  K. Khistyaev,  Jaehoon Kim,  P. Klunzinger,  K. Koh,  
 D. Kosenkov,  L. Koulias,  T. Kowalczyk,  C. M. Krauter,  A. Kunitsa,  
 Ka Un Lao,  A. Laurent,  K. V. Lawler,  Joonho Lee,  D. Lefrancois,  
 S. Lehtola,  D. S. Levine,  Yi-Pei Li,  You-Sheng Lin,  Fenglai Liu,  
 Kuan-Yu Liu,  E. Livshits,  M. Loipersberger,  A. Luenser,  P. Manohar,  
 E. Mansoor,  S. F. Manzer,  Shan-Ping Mao,  Yuezhi Mao,  N. Mardirossian,  
 A. V. Marenich,  T. Markovich,  L. A. Martinez-Martinez,  S. A. Maurer,  
 N. J. Mayhall,  S. C. McKenzie,  J.-M. Mewes,  P. Morgante,  A. F. Morrison,  
 J. W. Mullinax,  K. Nanda,  T. S. Nguyen-Beck,  R. Olivares-Amaya,  
 K. J. Oosterbaan,  J. A. Parkhill,  S. K. Paul,  F. Pavosevic,  Zheng Pei,  
 T. M. Perrine,  F. Plasser,  P. Pokhilko,  S. Prager,  A. Prociuk,  
 E. Ramos,  B. Rana,  D. R. Rehn,  F. Rob,  E. Rossomme,  M. Scheurer,  
 M. Schneider,  N. Sergueev,  S. M. Sharada,  S. Sharma,  W. Skomorowski,  
 D. W. Small,  T. Stauch,  C. J. Stein,  T. Stein,  Yu-Chuan Su,  
 S. P. Veccham,  Zhen Tao,  A. J. W. Thom,  A. Tkatchenko,  T. Tsuchimochi,  
 N. M. Tubman,  L. Vogt,  M. L. Vidal,  O. Vydrov,  M. A. Watson,  J. Wenzel,  
 M. de Wergifosse,  T. A. Wesolowski,  A. White,  J. Witte,  A. Yamada,  
 Jun Yang,  K. Yao,  S. Yeganeh,  S. R. Yost,  Zhi-Qiang You,  A. Zech,  
 Igor Ying Zhang,  Xing Zhang,  Yan Zhao,  Ying Zhu,  B. R. Brooks,  
 G. K. L. Chan,  C. J. Cramer,  M. S. Gordon,  W. J. Hehre,  A. Klamt,  
 M. W. Schmidt,  C. D. Sherrill,  D. G. Truhlar,  A. Aspuru-Guzik,  R. Baer,  
 A. T. Bell,  N. A. Besley,  Jeng-Da Chai,  A. E. DePrince, III,  
 R. A. DiStasio Jr.,  A. Dreuw,  B. D. Dunietz,  T. R. Furlani,  
 Chao-Ping Hsu,  Yousung Jung,  Jing Kong,  D. S. Lambrecht,  WanZhen Liang,  
 C. Ochsenfeld,  V. A. Rassolov,  L. V. Slipchenko,  J. E. Subotnik,  
 T. Van Voorhis,  J. M. Herbert,  A. I. Krylov,  P. M. W. Gill,  M. Head-Gordon

 Contributors to earlier versions of Q-Chem not listed above: 
 R. D. Adamson,  B. Austin,  J. Baker,  G. J. O. Beran,  K. Brandhorst,  
 S. T. Brown,  E. F. C. Byrd,  A. K. Chakraborty,  C.-L. Cheng,  
 Siu Hung Chien,  D. M. Chipman,  D. L. Crittenden,  H. Dachsel,  
 R. J. Doerksen,  A. D. Dutoi,  L. Fusti-Molnar,  W. A. Goddard III,  
 A. Golubeva-Zadorozhnaya,  S. R. Gwaltney,  G. Hawkins,  A. Heyden,  
 S. Hirata,  G. Kedziora,  F. J. Keil,  C. Kelley,  Jihan Kim,  R. A. King,  
 R. Z. Khaliullin,  P. P. Korambath,  W. Kurlancheek,  A. M. Lee,  M. S. Lee,  
 S. V. Levchenko,  Ching Yeh Lin,  D. Liotard,  R. C. Lochan,  I. Lotan,  
 P. E. Maslen,  N. Nair,  D. P. O'Neill,  D. Neuhauser,  E. Neuscamman,  
 C. M. Oana,  R. Olson,  B. Peters,  R. Peverati,  P. A. Pieniazek,  
 Y. M. Rhee,  J. Ritchie,  M. A. Rohrdanz,  E. Rosta,  N. J. Russ,  
 H. F. Schaefer III,  N. E. Schultz,  N. Shenvi,  A. C. Simmonett,  A. Sodt,  
 D. Stuck,  K. S. Thanthiriwatte,  V. Vanovschi,  Tao Wang,  A. Warshel,  
 C. F. Williams,  Q. Wu,  X. Xu,  W. Zhang

 Please cite Q-Chem as follows:
 Y. Shao et al., Mol. Phys. 113, 184-215 (2015)
 DOI: 10.1080/00268976.2014.952696

 Q-Chem 5.3.1 for Intel X86 EM64T Linux

 Parts of Q-Chem use Armadillo 9.800.1 (Horizon Scraper).
 http://arma.sourceforge.net/

 Q-Chem begins on Wed Jun 23 13:25:08 2021  

Host: 
0

     Scratch files written to /scratch/scaparas/job_3584465/qchem118255//
 Aug2920 |scratch|qcdevops|jenkins|workspace|build_RNUM    
Processing $rem in /cm/shared/apps/spack/cpu/opt/spack/linux-centos8-zen2/gcc-10.2.0/qchem-5.3-5qddma6gy34jvefiv7mbcb7qm253n45r/config/preferences:
Processing $rem in /home/scaparas/.qchemrc:

Checking the input file for inconsistencies... 	...done.

--------------------------------------------------------------
User input:
--------------------------------------------------------------
$molecule
0 1
C   -2.1510630    0.6892080    0.0000880
C   -2.1279270   -0.7158180    0.0000750
C   -0.9322970   -1.4131000   -0.0000110
C    0.2469110   -0.6702010   -0.0000420
C    0.2481930    0.7482990    0.0000000
C   -0.9794740    1.4235260    0.0000320
N    1.5617740   -1.0775920   -0.0002850
C    1.6201330    1.1629000   -0.0001570
C    2.3820130    0.0308060    0.0002480
H    1.8763150   -2.0300110    0.0004380
H    1.9921730    2.1730100   -0.0003480
H    3.4525490   -0.0824250    0.0004080
H   -3.0615940   -1.2620200    0.0000880
H   -0.9172520   -2.4953420   -0.0000730
H   -3.1042030    1.2007850    0.0000900
H   -1.0093480    2.5054210   -0.0000150
$end

$rem
BASIS  =  6-31+G*
GUI  =  2
JOB_TYPE  =  Optimization
METHOD  = BMK
SCF_CONVERGENCE  =  8
THRESH = 12
CIS_N_ROOTS  = 3
CIS_SINGLETS = true
CIS_TRIPLETS = false
CIS_STATE_DERIV = 2
MEM_STATIC = 500
MEM_TOTAL = 3000
$end
--------------------------------------------------------------
 ----------------------------------------------------------------
             Standard Nuclear Orientation (Angstroms)
    I     Atom           X                Y                Z
 ----------------------------------------------------------------
    1      C       2.1510629040    -0.6892079969     0.0000583065
    2      C       2.1279268385     0.7158180020     0.0000481775
    3      C       0.9322968051     1.4130999466    -0.0000206639
    4      C      -0.2469111607     0.6702008918    -0.0000373513
    5      C      -0.2481930942    -0.7482991083     0.0000020775
    6      C       0.9794739374    -1.4235260513     0.0000165335
    7      N      -1.5617741827     1.0775918311    -0.0002621374
    8      C      -1.6201330769    -1.1629001718    -0.0001374500
    9      C      -2.3820131241    -0.0308062080     0.0002797387
   10      H      -1.8763152174     2.0300108152     0.0004667797
   11      H      -1.9921730325    -2.1730101887    -0.0003253498
   12      H      -3.4525491271     0.0824247420     0.0004541695
   13      H       3.0615938132     1.2620200454     0.0000497686
   14      H       0.9172517540     2.4953419460    -0.0000804893
   15      H       3.1042029277    -1.2007849526     0.0000467087
   16      H       1.0093479871    -2.5054210498    -0.0000328375
 ----------------------------------------------------------------
 Molecular Point Group                 C1    NOp =  1
 Largest Abelian Subgroup              C1    NOp =  1
 Nuclear Repulsion Energy =         401.33686680 hartrees
 There are       31 alpha and       31 beta electrons
 Requested basis set is 6-31+G(d)
 There are 59 shells and 185 basis functions

 Total QAlloc Memory Limit   3000 MB
 Mega-Array Size       489 MB
 MEM_STATIC part       500 MB
 A cutoff of  1.0D-12 yielded   1657 shell pairs
 There are     17105 function pairs
 Smallest overlap matrix eigenvalue = 1.26E-06

 Scale SEOQF with 1.000000e-01/1.000000e-01/1.000000e-01

 Standard Electronic Orientation quadrupole field applied
 Nucleus-field energy     =     0.0000000117 hartrees
 Guess from superposition of atomic densities
 Warning:  Energy on first SCF cycle will be non-variational
 SAD guess density has 62.000000 electrons

 -----------------------------------------------------------------------
  General SCF calculation program by
  Eric Jon Sundstrom, Paul Horn, Yuezhi Mao, Dmitri Zuev, Alec White,
  David Stuck, Shaama M.S., Shane Yost, Joonho Lee, David Small,
  Daniel Levine, Susi Lehtola, Hugh Burton, Evgeny Epifanovsky,
  Bang C. Huynh
 -----------------------------------------------------------------------
 Exchange:     0.4200 Hartree-Fock + 1.0000 BMK
 Correlation:  1.0000 BMK
 Using SG-2 standard quadrature grid
 using 4 threads for integral computing
 -------------------------------------------------------
 OpenMP Integral computing Module                
 Release: version 1.0, May 2013, Q-Chem Inc. Pittsburgh 
 -------------------------------------------------------
 A restricted SCF calculation will be
 performed using DIIS
 SCF converges when DIIS error is below 1.0e-08
 ---------------------------------------
  Cycle       Energy         DIIS error
 ---------------------------------------
    1    -366.4884134274      5.71e-02  
    2    -363.4786659868      4.65e-03  
    3    -363.5007168364      4.10e-03  
    4    -363.5756866114      1.12e-03  
    5    -363.5802983167      4.83e-04  
    6    -363.5812693221      7.84e-05  
    7    -363.5812912669      3.16e-05  
    8    -363.5812957275      4.75e-06  
    9    -363.5812958208      2.57e-06  
   10    -363.5812958539      4.73e-07  
   11    -363.5812958557      2.97e-07  
   12    -363.5812958562      7.11e-08  
   13    -363.5812958563      3.97e-08  
   14    -363.5812958563      1.06e-08  
   15    -363.5812958563      3.28e-09  Convergence criterion met
 ---------------------------------------
 SCF time:   CPU 134.37s  wall 34.00s 
 SCF   energy in the final basis set =     -363.5812958563
 Total energy in the final basis set =     -363.5812958563
 
 Direct TDDFT/TDA calculation will be performed
 Exchange:     0.4200 Hartree-Fock + 1.0000 BMK
 Correlation:  1.0000 BMK
 Using SG-2 standard quadrature grid
 Singlet excitation energies requested
 CIS energy converged when residual is below 10e- 6
 ---------------------------------------------------
 Iter    Rts Conv    Rts Left    Ttl Dev     Max Dev
 ---------------------------------------------------
   1         0           3      0.003683    0.001771
   2         0           3      0.001085    0.000568
   3         0           3      0.000424    0.000197
   4         0           3      0.000155    0.000073
   5         0           3      0.000050    0.000025
   6         0           3      0.000019    0.000008
   7         0           3      0.000006    0.000003
   8         3           0      0.000002    0.000001    Roots Converged
 ---------------------------------------------------
 
 ---------------------------------------------------
         TDDFT/TDA Excitation Energies              
 ---------------------------------------------------

 Excited state   1: excitation energy (eV) =    5.2497
 Total energy for state  1:                  -363.38837170 au
    Multiplicity: Singlet
    Trans. Mom.:  0.0885 X   0.5139 Y  -0.0001 Z
    Strength   :     0.0349711581
    D(   30) --> V(    1) amplitude =  0.7320
    D(   31) --> V(    1) amplitude = -0.4113
    D(   31) --> V(    4) amplitude = -0.4779

 Excited state   2: excitation energy (eV) =    5.3133
 Total energy for state  2:                  -363.38603728 au
    Multiplicity: Singlet
    Trans. Mom.:  0.8107 X  -0.5051 Y  -0.0002 Z
    Strength   :     0.1187691601
    D(   30) --> V(    1) amplitude =  0.3096
    D(   30) --> V(    4) amplitude =  0.2633
    D(   31) --> V(    1) amplitude =  0.8224
    D(   31) --> V(    4) amplitude = -0.3364

 Excited state   3: excitation energy (eV) =    5.7188
 Total energy for state  3:                  -363.37113335 au
    Multiplicity: Singlet
    Trans. Mom.: -0.0005 X   0.0003 Y  -0.1365 Z
    Strength   :     0.0026108027
    D(   31) --> V(    2) amplitude =  0.9798
 
 ---------------------------------------------------
 Calculating Relaxed Density
 ---------------------------------------------------
 Iter    Rts Conv    Rts Left    Ttl Dev     Max Dev
 ---------------------------------------------------
   1         0           3      0.001284    0.000710
   2         0           3      0.000526    0.000290
   3         0           3      0.000118    0.000050
   4         0           3      0.000038    0.000020
   5         0           3      0.000009    0.000005
   6         3           0      0.000000    0.000000    Roots Converged
 ---------------------------------------------------
  SETman timing summary (seconds)
  CPU time               460.45s
  System time              0.00s
  Wall time              115.65s
 
 --------------------------------------------------------------
 
                    Orbital Energies (a.u.)
 --------------------------------------------------------------
 
 Alpha MOs
 -- Occupied --
-14.7230 -10.5198 -10.5164 -10.4839 -10.4783 -10.4777 -10.4776 -10.4723
-10.4709  -1.0652  -0.9148  -0.8541  -0.8037  -0.7844  -0.6851  -0.6535
 -0.6395  -0.5958  -0.5335  -0.5225  -0.4838  -0.4774  -0.4748  -0.4568
 -0.4360  -0.3968  -0.3799  -0.3749  -0.3183  -0.2548  -0.2370
 -- Virtual --
  0.0110   0.0312   0.0496   0.0501   0.0550   0.0667   0.0707   0.0806
  0.0888   0.0950   0.0952   0.0996   0.1244   0.1269   0.1342   0.1369
  0.1462   0.1645   0.1744   0.1755   0.1869   0.1918   0.2001   0.2033
  0.2039   0.2116   0.2208   0.2274   0.2287   0.2322   0.2377   0.2450
  0.2527   0.2597   0.2659   0.2724   0.2752   0.2769   0.2878   0.2933
  0.3019   0.3072   0.3189   0.3375   0.3445   0.3537   0.3610   0.3743
  0.3975   0.4113   0.4233   0.4453   0.4877   0.4993   0.5686   0.6340
  0.6805   0.7266   0.7273   0.7522   0.7693   0.7752   0.7872   0.7904
  0.7947   0.8073   0.8081   0.8324   0.8475   0.8538   0.8717   0.9116
  0.9519   0.9709   0.9801   1.0060   1.0144   1.0210   1.0361   1.0490
  1.0622   1.0975   1.1189   1.1450   1.1639   1.1825   1.1877   1.2392
  1.2467   1.2741   1.2972   1.3145   1.3195   1.3859   1.3959   1.4184
  1.4380   1.4870   1.4933   1.5198   1.5396   1.5422   1.5766   1.5845
  1.6075   1.6624   1.7261   1.8539   1.9392   1.9719   1.9831   2.0110
  2.0357   2.0833   2.0863   2.0983   2.1537   2.1897   2.2238   2.2483
  2.2613   2.2832   2.3281   2.3375   2.3447   2.3584   2.3937   2.4610
  2.4889   2.5249   2.6282   2.6385   2.7030   2.7245   2.7485   2.7791
  2.8139   2.8893   2.9255   2.9355   3.0354   3.0520   3.2086   3.3154
  3.5316   4.2440   4.3343   4.3614   4.3969   4.4345   4.4717   4.5520
  4.5912   4.8590
 --------------------------------------------------------------
 
          Ground-State Mulliken Net Atomic Charges

     Atom                 Charge (a.u.)
  ----------------------------------------
      1 C                    -0.028670
      2 C                    -0.459500
      3 C                    -0.016578
      4 C                    -1.028399
      5 C                     1.107379
      6 C                    -0.522621
      7 N                    -0.529937
      8 C                     0.143720
      9 C                    -0.230621
     10 H                     0.415994
     11 H                     0.202230
     12 H                     0.206601
     13 H                     0.183713
     14 H                     0.184917
     15 H                     0.182029
     16 H                     0.189741
  ----------------------------------------
  Sum of atomic charges =     0.000000

 -----------------------------------------------------------------
                    Cartesian Multipole Moments
 -----------------------------------------------------------------
    Charge (ESU x 10^10)
                -0.0000
    Dipole Moment (Debye)
         X      -1.5029      Y       1.5495      Z       0.0011
       Tot       2.1586
    Quadrupole Moments (Debye-Ang)
        XX     -44.7709     XY      -3.1169     YY     -44.0618
        XZ      -0.0033     YZ       0.0033     ZZ     -58.7879
    Octopole Moments (Debye-Ang^2)
       XXX     -15.0861    XXY       8.2027    XYY      -7.8922
       YYY      10.4142    XXZ       0.0077    XYZ      -0.0067
       YYZ       0.0022    XZZ      -2.0167    YZZ       2.0072
       ZZZ      -0.0009
    Hexadecapole Moments (Debye-Ang^3)
      XXXX    -801.1438   XXXY     -21.4305   XXYY    -193.4213
      XYYY     -19.4608   YYYY    -362.8377   XXXZ      -0.0241
      XXYZ       0.0131   XYYZ      -0.0073   YYYZ       0.0143
      XXZZ    -187.5482   XYZZ      -3.8853   YYZZ     -92.6421
      XZZZ      -0.0012   YZZZ       0.0029   ZZZZ     -71.6540
 -----------------------------------------------------------------
 Calculating analytic gradient of the CIS energy
 CIS relaxed dipole moment
            1
    1  -1.6767830
    2   0.6250204
    3  -0.0000966
	Magnitude:	 1.789 au	 4.548 Debye
 CIS 2 State Energy is -363.3860372793
 Gradient of the state energy (including CIS Excitation Energy)
            1           2           3           4           5           6
    1  -0.0309266  -0.0307701   0.0251062  -0.0017430   0.0188364   0.0083180
    2  -0.0178011   0.0249979  -0.0417254   0.0151122  -0.0023097   0.0409653
    3   0.0000051  -0.0000019   0.0000024   0.0000102   0.0000199   0.0000000
            7           8           9          10          11          12
    1   0.0296193  -0.0441381   0.0213947   0.0036334   0.0023366   0.0055174
    2   0.0228949   0.0278544  -0.0656428  -0.0069054   0.0051097  -0.0013231
    3  -0.0000533  -0.0000260   0.0000540  -0.0000041  -0.0000032  -0.0000009
           13          14          15          16
    1  -0.0041711   0.0006484  -0.0041115   0.0004500
    2  -0.0025985  -0.0044715   0.0014383   0.0044048
    3  -0.0000002   0.0000024  -0.0000009  -0.0000033
 Gradient time:  CPU 40.17 s  wall 10.09 s
 Geometry Optimization Parameters
   NAtoms,    NIC,     NZ,  NCons,   NDum,   NFix, NCnnct, MaxDiis
       16     116       0       0       0       0       0       0


** GEOMETRY OPTIMIZATION IN DELOCALIZED INTERNAL COORDINATES **
   Searching for a Minimum

   Optimization Cycle:   1

                       Coordinates (Angstroms)
     ATOM                X               Y               Z
      1  C         2.1510629040   -0.6892079969    0.0000583065
      2  C         2.1279268385    0.7158180020    0.0000481775
      3  C         0.9322968051    1.4130999466   -0.0000206639
      4  C        -0.2469111607    0.6702008918   -0.0000373513
      5  C        -0.2481930942   -0.7482991083    0.0000020775
      6  C         0.9794739374   -1.4235260513    0.0000165335
      7  N        -1.5617741827    1.0775918311   -0.0002621374
      8  C        -1.6201330769   -1.1629001718   -0.0001374500
      9  C        -2.3820131241   -0.0308062080    0.0002797387
     10  H        -1.8763152174    2.0300108152    0.0004667797
     11  H        -1.9921730325   -2.1730101887   -0.0003253498
     12  H        -3.4525491271    0.0824247420    0.0004541695
     13  H         3.0615938132    1.2620200454    0.0000497686
     14  H         0.9172517540    2.4953419460   -0.0000804893
     15  H         3.1042029277   -1.2007849526    0.0000467087
     16  H         1.0093479871   -2.5054210498   -0.0000328375
   Point Group: c1    Number of degrees of freedom:    42


   Energy is   -363.386037279


 Attempting to generate delocalized internal coordinates
 Initial Hessian constructed with Jon Baker's OPTIMIZE code

 42 Hessian modes will be used to form the next step
  Hessian Eigenvalues:
     0.018594    0.019738    0.020011    0.020794    0.021683    0.022200
     0.022636    0.023004    0.023236    0.023608    0.023851    0.023984
     0.024127    0.160000    0.160000    0.160000    0.160000    0.160000
     0.160000    0.160000    0.220000    0.221879    0.226618    0.240111
     0.246509    0.357123    0.357170    0.357835    0.357899    0.364196
     0.364272    0.370088    0.384319    0.426334    0.434649    0.457693
     0.466917    0.471622    0.474685    0.475669    0.481247    0.509555

 Minimum search - taking simple RFO step
 Searching for Lamda that Minimizes Along All modes
 Value Taken    Lamda =  -0.02194395
 Step Taken.  Stepsize is  0.218665

                             Maximum     Tolerance    Cnvgd?
         Gradient           0.045347      0.000300      NO
         Displacement       0.103518      0.001200      NO
         Energy change     *********      0.000001      NO


 New Cartesian Coordinates Obtained by Inverse Iteration

 Displacement from previous Coordinates is:  0.325740
 ----------------------------------------------------------------
             Standard Nuclear Orientation (Angstroms)
    I     Atom           X                Y                Z
 ----------------------------------------------------------------
    1      C       2.1991043756    -0.7044214165    -0.0000115652
    2      C       2.1521767038     0.7094078318    -0.0000088910
    3      C       0.9175326449     1.4404532107     0.0000080418
    4      C      -0.2631726195     0.6622887641     0.0000290356
    5      C      -0.2423538840    -0.7680031677     0.0000442501
    6      C       1.0037151519    -1.4788983301     0.0000337182
    7      N      -1.6001043093     1.0804455103    -0.0000882597
    8      C      -1.6138608115    -1.1586001053    -0.0000047120
    9      C      -2.4213219231     0.0080517490     0.0000623397
   10      H      -1.9144103912     2.0416350302     0.0006590933
   11      H      -1.9925708843    -2.1744152889    -0.0001563554
   12      H      -3.4988341503     0.1284656690     0.0000569602
   13      H       3.0885936538     1.2644206922    -0.0000412688
   14      H       0.8913293342     2.5287316770    -0.0000332431
   15      H       3.1674122026    -1.1999822632    -0.0000519629
   16      H       1.0298598577    -2.5670270701     0.0000288003
 ----------------------------------------------------------------
 Molecular Point Group                 C1    NOp =  1
 Largest Abelian Subgroup              C1    NOp =  1
 Nuclear Repulsion Energy =         395.92601459 hartrees
 There are       31 alpha and       31 beta electrons
 Applying Cartesian multipole field
    Component          Value
    ---------          -----
     (2,0,0)        1.00000E-11
     (0,2,0)        2.00000E-11
     (0,0,2)       -3.00000E-11
 Nucleus-field energy     =     0.0000000120 hartrees
 Requested basis set is 6-31+G(d)
 There are 59 shells and 185 basis functions
 A cutoff of  1.0D-12 yielded   1656 shell pairs
 There are     17099 function pairs
 Smallest overlap matrix eigenvalue = 1.41E-06
 Guess MOs from SCF MO coefficient file

 -----------------------------------------------------------------------
  General SCF calculation program by
  Eric Jon Sundstrom, Paul Horn, Yuezhi Mao, Dmitri Zuev, Alec White,
  David Stuck, Shaama M.S., Shane Yost, Joonho Lee, David Small,
  Daniel Levine, Susi Lehtola, Hugh Burton, Evgeny Epifanovsky,
  Bang C. Huynh
 -----------------------------------------------------------------------
 Exchange:     0.4200 Hartree-Fock + 1.0000 BMK
 Correlation:  1.0000 BMK
 Using SG-2 standard quadrature grid
 using 4 threads for integral computing
 -------------------------------------------------------
 OpenMP Integral computing Module                
 Release: version 1.0, May 2013, Q-Chem Inc. Pittsburgh 
 -------------------------------------------------------
 A restricted SCF calculation will be
 performed using DIIS
 SCF converges when DIIS error is below 1.0e-08
 ---------------------------------------
  Cycle       Energy         DIIS error
 ---------------------------------------
    1    -363.5703729627      1.02e-03  
    2    -363.5756159574      2.58e-04  
    3    -363.5758023933      1.78e-04  
    4    -363.5759400246      5.11e-05  
    5    -363.5759509538      1.98e-05  
    6    -363.5759531931      6.21e-06  
    7    -363.5759533883      2.30e-06  
    8    -363.5759534270      7.66e-07  
    9    -363.5759534299      4.46e-07  
   10    -363.5759534309      4.87e-08  
   11    -363.5759534309      3.24e-08  
   12    -363.5759534309      6.87e-09  Convergence criterion met
 ---------------------------------------
 SCF time:   CPU 108.72s  wall 27.00s 
 SCF   energy in the final basis set =     -363.5759534309
 Total energy in the final basis set =     -363.5759534309
 
 Direct TDDFT/TDA calculation will be performed
 Exchange:     0.4200 Hartree-Fock + 1.0000 BMK
 Correlation:  1.0000 BMK
 Using SG-2 standard quadrature grid
 Singlet excitation energies requested
 CIS energy converged when residual is below 10e- 6
 ---------------------------------------------------
 Iter    Rts Conv    Rts Left    Ttl Dev     Max Dev
 ---------------------------------------------------
   1         0           3      0.003736    0.001802
   2         0           3      0.001055    0.000579
   3         0           3      0.000392    0.000230
   4         0           3      0.000135    0.000074
   5         0           3      0.000043    0.000022
   6         0           3      0.000016    0.000010
   7         1           2      0.000004    0.000003
   8         2           1      0.000002    0.000001
   9         3           0      0.000001    0.000001    Roots Converged
 ---------------------------------------------------
 
 ---------------------------------------------------
         TDDFT/TDA Excitation Energies              
 ---------------------------------------------------

 Excited state   1: excitation energy (eV) =    4.8398
 Total energy for state  1:                  -363.39809579 au
    Multiplicity: Singlet
    Trans. Mom.: -0.8913 X   0.7083 Y   0.0001 Z
    Strength   :     0.1536932825
    D(   30) --> V(    3) amplitude = -0.2326
    D(   31) --> V(    1) amplitude =  0.9157

 Excited state   2: excitation energy (eV) =    5.0636
 Total energy for state  2:                  -363.38987080 au
    Multiplicity: Singlet
    Trans. Mom.: -0.0422 X  -0.3457 Y   0.0000 Z
    Strength   :     0.0150475456
    D(   30) --> V(    1) amplitude =  0.7521
    D(   31) --> V(    3) amplitude =  0.5950

 Excited state   3: excitation energy (eV) =    5.4300
 Total energy for state  3:                  -363.37640302 au
    Multiplicity: Singlet
    Trans. Mom.: -0.0003 X   0.0002 Y  -0.1448 Z
    Strength   :     0.0027899462
    D(   31) --> V(    2) amplitude =  0.9831
 
 ---------------------------------------------------
 Calculating Relaxed Density
 ---------------------------------------------------
 Iter    Rts Conv    Rts Left    Ttl Dev     Max Dev
 ---------------------------------------------------
   1         0           3      0.001403    0.000776
   2         0           3      0.000562    0.000291
   3         0           3      0.000131    0.000056
   4         0           3      0.000042    0.000020
   5         0           3      0.000010    0.000005
   6         2           1      0.000001    0.000001
   7         3           0      0.000000    0.000000    Roots Converged
 ---------------------------------------------------
  SETman timing summary (seconds)
  CPU time               487.27s
  System time              0.00s
  Wall time              122.46s
 
 --------------------------------------------------------------
 
                    Orbital Energies (a.u.)
 --------------------------------------------------------------
 
 Alpha MOs
 -- Occupied --
-14.7288 -10.5261 -10.5224 -10.4936 -10.4881 -10.4853 -10.4849 -10.4820
-10.4730  -1.0655  -0.9050  -0.8449  -0.8031  -0.7735  -0.6848  -0.6531
 -0.6333  -0.5936  -0.5342  -0.5209  -0.4811  -0.4784  -0.4723  -0.4463
 -0.4351  -0.3950  -0.3789  -0.3756  -0.3120  -0.2598  -0.2273
 -- Virtual --
  0.0005   0.0299   0.0452   0.0496   0.0557   0.0661   0.0708   0.0771
  0.0889   0.0940   0.0966   0.0993   0.1244   0.1268   0.1342   0.1362
  0.1462   0.1646   0.1732   0.1739   0.1841   0.1911   0.1967   0.2018
  0.2036   0.2096   0.2195   0.2265   0.2272   0.2308   0.2350   0.2376
  0.2497   0.2544   0.2659   0.2700   0.2716   0.2725   0.2844   0.2921
  0.3017   0.3045   0.3134   0.3290   0.3362   0.3429   0.3595   0.3701
  0.3905   0.3972   0.4076   0.4319   0.4683   0.4911   0.5577   0.6125
  0.6467   0.7248   0.7278   0.7503   0.7691   0.7779   0.7780   0.7820
  0.7894   0.8026   0.8087   0.8286   0.8364   0.8448   0.8618   0.9076
  0.9439   0.9633   0.9688   1.0098   1.0153   1.0181   1.0328   1.0475
  1.0544   1.0959   1.1167   1.1353   1.1576   1.1721   1.1865   1.2338
  1.2374   1.2690   1.2926   1.3061   1.3143   1.3812   1.3922   1.4216
  1.4230   1.4652   1.4832   1.5022   1.5401   1.5461   1.5671   1.5732
  1.6050   1.6500   1.7066   1.8388   1.9058   1.9624   1.9652   1.9726
  2.0156   2.0720   2.0735   2.0780   2.1134   2.1404   2.1951   2.2253
  2.2264   2.2617   2.2984   2.3082   2.3297   2.3351   2.3696   2.4329
  2.4645   2.5187   2.5939   2.6121   2.6802   2.6926   2.7058   2.7374
  2.7851   2.8535   2.8919   2.9012   3.0077   3.0289   3.1579   3.2853
  3.4433   4.2400   4.3054   4.3527   4.3781   4.4221   4.4680   4.5399
  4.5826   4.8314
 --------------------------------------------------------------
 
          Ground-State Mulliken Net Atomic Charges

     Atom                 Charge (a.u.)
  ----------------------------------------
      1 C                    -0.075085
      2 C                    -0.395802
      3 C                    -0.204115
      4 C                    -1.013587
      5 C                     1.204910
      6 C                    -0.351594
      7 N                    -0.499417
      8 C                    -0.075076
      9 C                    -0.172550
     10 H                     0.419285
     11 H                     0.196856
     12 H                     0.211467
     13 H                     0.182980
     14 H                     0.189430
     15 H                     0.186003
     16 H                     0.196295
  ----------------------------------------
  Sum of atomic charges =     0.000000

 -----------------------------------------------------------------
                    Cartesian Multipole Moments
 -----------------------------------------------------------------
    Charge (ESU x 10^10)
                -0.0000
    Dipole Moment (Debye)
         X      -1.5141      Y       1.7172      Z       0.0009
       Tot       2.2894
    Quadrupole Moments (Debye-Ang)
        XX     -44.4152     XY      -3.9038     YY     -43.9599
        XZ      -0.0025     YZ       0.0032     ZZ     -59.4363
    Octopole Moments (Debye-Ang^2)
       XXX     -15.9604    XXY       9.4918    XYY      -7.6146
       YYY      11.5047    XXZ       0.0029    XYZ      -0.0069
       YYZ       0.0041    XZZ      -2.2274    YZZ       2.3989
       ZZZ      -0.0023
    Hexadecapole Moments (Debye-Ang^3)
      XXXX    -815.5461   XXXY     -22.5302   XXYY    -199.3053
      XYYY     -17.0344   YYYY    -370.1430   XXXZ      -0.0092
      XXYZ       0.0134   XYYZ      -0.0098   YYYZ       0.0137
      XXZZ    -194.1425   XYZZ      -2.4579   YYZZ     -95.8624
      XZZZ       0.0029   YZZZ       0.0013   ZZZZ     -73.6439
 -----------------------------------------------------------------
 Calculating analytic gradient of the CIS energy
 CIS relaxed dipole moment
            1
    1  -0.8248825
    2   0.4846105
    3   0.0002814
	Magnitude:	 0.957 au	 2.432 Debye
 CIS 2 State Energy is -363.3898707955
 Gradient of the state energy (including CIS Excitation Energy)
            1           2           3           4           5           6
    1   0.0001102  -0.0032432  -0.0020323   0.0045881  -0.0038940   0.0167869
    2   0.0102918  -0.0249322   0.0057823  -0.0414431   0.0235128  -0.0041780
    3  -0.0000014   0.0000001  -0.0000018   0.0000009   0.0000125   0.0000009
            7           8           9          10          11          12
    1  -0.0414842   0.0258046   0.0066903  -0.0031697   0.0007826  -0.0011000
    2  -0.0141519  -0.0025000   0.0443505   0.0002758  -0.0000624   0.0023355
    3  -0.0000182  -0.0000034   0.0000057   0.0000084  -0.0000043   0.0000009
           13          14          15          16
    1   0.0007652  -0.0014105   0.0004054   0.0004006
    2  -0.0000115   0.0010802   0.0007773  -0.0011269
    3  -0.0000003   0.0000009   0.0000001  -0.0000012
 Gradient time:  CPU 40.48 s  wall 10.18 s
 Geometry Optimization Parameters
   NAtoms,    NIC,     NZ,  NCons,   NDum,   NFix, NCnnct, MaxDiis
       16     116       0       0       0       0       0       0

 Cartesian Hessian Update
 Hessian updated using BFGS update


** GEOMETRY OPTIMIZATION IN DELOCALIZED INTERNAL COORDINATES **
   Searching for a Minimum

   Optimization Cycle:   2

                       Coordinates (Angstroms)
     ATOM                X               Y               Z
      1  C         2.1991043756   -0.7044214165   -0.0000115652
      2  C         2.1521767038    0.7094078318   -0.0000088910
      3  C         0.9175326449    1.4404532107    0.0000080418
      4  C        -0.2631726195    0.6622887641    0.0000290356
      5  C        -0.2423538840   -0.7680031677    0.0000442501
      6  C         1.0037151519   -1.4788983301    0.0000337182
      7  N        -1.6001043093    1.0804455103   -0.0000882597
      8  C        -1.6138608115   -1.1586001053   -0.0000047120
      9  C        -2.4213219231    0.0080517490    0.0000623397
     10  H        -1.9144103912    2.0416350302    0.0006590933
     11  H        -1.9925708843   -2.1744152889   -0.0001563554
     12  H        -3.4988341503    0.1284656690    0.0000569602
     13  H         3.0885936538    1.2644206922   -0.0000412688
     14  H         0.8913293342    2.5287316770   -0.0000332431
     15  H         3.1674122026   -1.1999822632   -0.0000519629
     16  H         1.0298598577   -2.5670270701    0.0000288003
   Point Group: c1    Number of degrees of freedom:    42


   Energy is   -363.389870795

 Hessian updated using BFGS update

 40 Hessian modes will be used to form the next step
  Hessian Eigenvalues:
     0.018594    0.019738    0.020011    0.020794    0.021683    0.022200
     0.022636    0.023004    0.023236    0.023608    0.023851    0.023984
     0.024127    0.159795    0.160000    0.160000    0.160000    0.160358
     0.214985    0.222265    0.225664    0.246257    0.252864    0.340223
     0.357145    0.357410    0.357872    0.359866    0.364251    0.366580
     0.380940    0.384372    0.427334    0.446630    0.460626    0.467254
     0.471733    0.476160    0.489826    0.897835

 Minimum search - taking simple RFO step
 Searching for Lamda that Minimizes Along All modes
 Value Taken    Lamda =  -0.00688655
 Step Taken.  Stepsize is  0.113949

                             Maximum     Tolerance    Cnvgd?
         Gradient           0.039981      0.000300      NO
         Displacement       0.073308      0.001200      NO
         Energy change     -0.003834      0.000001      NO


 New Cartesian Coordinates Obtained by Inverse Iteration

 Displacement from previous Coordinates is:  0.175959
 ----------------------------------------------------------------
             Standard Nuclear Orientation (Angstroms)
    I     Atom           X                Y                Z
 ----------------------------------------------------------------
    1      C       2.1937961272    -0.6985504244    -0.0000483738
    2      C       2.1696787031     0.7324910736    -0.0000285389
    3      C       0.9291960395     1.4653053270     0.0000323758
    4      C      -0.2520940030     0.6791144635     0.0000680156
    5      C      -0.2570255156    -0.7763631559     0.0000387791
    6      C       0.9855108050    -1.4822878979     0.0000136574
    7      N      -1.5820733227     1.0753538179     0.0000117071
    8      C      -1.6328497256    -1.1820585519     0.0000732496
    9      C      -2.4251754217    -0.0112480675    -0.0000440806
   10      H      -1.8897622588     2.0396067595     0.0007002144
   11      H      -2.0170116861    -2.1979554211    -0.0000224326
   12      H      -3.5030991556     0.1087892889    -0.0001438565
   13      H       3.1100453335     1.2825409872    -0.0000660016
   14      H       0.9060346437     2.5539032101     0.0000054518
   15      H       3.1577944852    -1.2054248122    -0.0000983208
   16      H       1.0101299031    -2.5706641041     0.0000341352
 ----------------------------------------------------------------
 Molecular Point Group                 C1    NOp =  1
 Largest Abelian Subgroup              C1    NOp =  1
 Nuclear Repulsion Energy =         394.12978617 hartrees
 There are       31 alpha and       31 beta electrons
 Applying Cartesian multipole field
    Component          Value
    ---------          -----
     (2,0,0)        1.00000E-11
     (0,2,0)        2.00000E-11
     (0,0,2)       -3.00000E-11
 Nucleus-field energy     =     0.0000000121 hartrees
 Requested basis set is 6-31+G(d)
 There are 59 shells and 185 basis functions
 A cutoff of  1.0D-12 yielded   1656 shell pairs
 There are     17099 function pairs
 Smallest overlap matrix eigenvalue = 1.54E-06
 Guess MOs from SCF MO coefficient file

 -----------------------------------------------------------------------
  General SCF calculation program by
  Eric Jon Sundstrom, Paul Horn, Yuezhi Mao, Dmitri Zuev, Alec White,
  David Stuck, Shaama M.S., Shane Yost, Joonho Lee, David Small,
  Daniel Levine, Susi Lehtola, Hugh Burton, Evgeny Epifanovsky,
  Bang C. Huynh
 -----------------------------------------------------------------------
 Exchange:     0.4200 Hartree-Fock + 1.0000 BMK
 Correlation:  1.0000 BMK
 Using SG-2 standard quadrature grid
 using 4 threads for integral computing
 -------------------------------------------------------
 OpenMP Integral computing Module                
 Release: version 1.0, May 2013, Q-Chem Inc. Pittsburgh 
 -------------------------------------------------------
 A restricted SCF calculation will be
 performed using DIIS
 SCF converges when DIIS error is below 1.0e-08
 ---------------------------------------
  Cycle       Energy         DIIS error
 ---------------------------------------
    1    -363.5739873701      6.45e-04  
    2    -363.5758278639      1.37e-04  
    3    -363.5758500841      1.26e-04  
    4    -363.5759190687      2.74e-05  
    5    -363.5759222436      1.18e-05  
    6    -363.5759229928      4.52e-06  
    7    -363.5759231078      1.33e-06  
    8    -363.5759231221      5.03e-07  
    9    -363.5759231235      2.71e-07  
   10    -363.5759231238      4.60e-08  
   11    -363.5759231239      2.49e-08  
   12    -363.5759231239      5.74e-09  Convergence criterion met
 ---------------------------------------
 SCF time:   CPU 110.10s  wall 27.00s 
 SCF   energy in the final basis set =     -363.5759231239
 Total energy in the final basis set =     -363.5759231239
 
 Direct TDDFT/TDA calculation will be performed
 Exchange:     0.4200 Hartree-Fock + 1.0000 BMK
 Correlation:  1.0000 BMK
 Using SG-2 standard quadrature grid
 Singlet excitation energies requested
 CIS energy converged when residual is below 10e- 6
 ---------------------------------------------------
 Iter    Rts Conv    Rts Left    Ttl Dev     Max Dev
 ---------------------------------------------------
   1         0           3      0.003748    0.001826
   2         0           3      0.001069    0.000559
   3         0           3      0.000386    0.000231
   4         0           3      0.000138    0.000072
   5         0           3      0.000044    0.000019
   6         0           3      0.000016    0.000008
   7         0           3      0.000005    0.000002
   8         3           0      0.000002    0.000001    Roots Converged
 ---------------------------------------------------
 
 ---------------------------------------------------
         TDDFT/TDA Excitation Energies              
 ---------------------------------------------------

 Excited state   1: excitation energy (eV) =    4.9169
 Total energy for state  1:                  -363.39523035 au
    Multiplicity: Singlet
    Trans. Mom.: -0.7855 X   0.7489 Y   0.0000 Z
    Strength   :     0.1418883535
    D(   30) --> V(    3) amplitude = -0.2683
    D(   31) --> V(    1) amplitude =  0.9221

 Excited state   2: excitation energy (eV) =    4.9425
 Total energy for state  2:                  -363.39429073 au
    Multiplicity: Singlet
    Trans. Mom.: -0.3357 X  -0.2852 Y  -0.0000 Z
    Strength   :     0.0234959112
    D(   30) --> V(    1) amplitude =  0.7862
    D(   31) --> V(    3) amplitude =  0.5837

 Excited state   3: excitation energy (eV) =    5.5540
 Total energy for state  3:                  -363.37181696 au
    Multiplicity: Singlet
    Trans. Mom.: -0.0002 X   0.0001 Y  -0.1482 Z
    Strength   :     0.0029882465
    D(   31) --> V(    2) amplitude =  0.9818
 
 ---------------------------------------------------
 Calculating Relaxed Density
 ---------------------------------------------------
 Iter    Rts Conv    Rts Left    Ttl Dev     Max Dev
 ---------------------------------------------------
   1         0           3      0.001363    0.000797
   2         0           3      0.000550    0.000316
   3         0           3      0.000128    0.000057
   4         0           3      0.000044    0.000025
   5         0           3      0.000011    0.000006
   6         1           2      0.000002    0.000001
   7         3           0      0.000000    0.000000    Roots Converged
 ---------------------------------------------------
  SETman timing summary (seconds)
  CPU time               497.44s
  System time              0.00s
  Wall time              125.06s
 
 --------------------------------------------------------------
 
                    Orbital Energies (a.u.)
 --------------------------------------------------------------
 
 Alpha MOs
 -- Occupied --
-14.7289 -10.5277 -10.5253 -10.4950 -10.4892 -10.4883 -10.4875 -10.4836
-10.4771  -1.0612  -0.8990  -0.8459  -0.7967  -0.7756  -0.6831  -0.6519
 -0.6331  -0.5904  -0.5367  -0.5178  -0.4803  -0.4755  -0.4696  -0.4490
 -0.4358  -0.3933  -0.3796  -0.3711  -0.3146  -0.2539  -0.2309
 -- Virtual --
 -0.0005   0.0307   0.0425   0.0496   0.0552   0.0660   0.0701   0.0753
  0.0891   0.0938   0.0966   0.0996   0.1237   0.1275   0.1335   0.1357
  0.1468   0.1646   0.1730   0.1738   0.1841   0.1914   0.1971   0.2005
  0.2017   0.2107   0.2185   0.2248   0.2266   0.2304   0.2319   0.2351
  0.2490   0.2540   0.2630   0.2696   0.2726   0.2732   0.2846   0.2916
  0.2983   0.3028   0.3134   0.3263   0.3328   0.3410   0.3566   0.3664
  0.3840   0.3973   0.4068   0.4309   0.4624   0.4880   0.5527   0.6019
  0.6351   0.7241   0.7280   0.7514   0.7627   0.7752   0.7773   0.7775
  0.7902   0.7984   0.8073   0.8285   0.8321   0.8442   0.8619   0.9062
  0.9408   0.9644   0.9694   1.0087   1.0126   1.0184   1.0327   1.0420
  1.0534   1.0964   1.1171   1.1365   1.1579   1.1719   1.1813   1.2311
  1.2363   1.2658   1.2908   1.3040   1.3156   1.3764   1.3929   1.4212
  1.4222   1.4610   1.4829   1.4938   1.5389   1.5452   1.5668   1.5692
  1.5982   1.6419   1.7045   1.8401   1.9000   1.9564   1.9623   1.9665
  2.0088   2.0648   2.0716   2.0760   2.1077   2.1188   2.1828   2.2024
  2.2148   2.2541   2.2893   2.2937   2.3164   2.3228   2.3621   2.4220
  2.4617   2.5103   2.5871   2.6006   2.6732   2.6747   2.7002   2.7265
  2.7729   2.8426   2.8766   2.8928   3.0085   3.0188   3.1527   3.2682
  3.4157   4.2302   4.2943   4.3539   4.3798   4.4192   4.4635   4.5367
  4.5807   4.8190
 --------------------------------------------------------------
 
          Ground-State Mulliken Net Atomic Charges

     Atom                 Charge (a.u.)
  ----------------------------------------
      1 C                    -0.077849
      2 C                    -0.381558
      3 C                    -0.157977
      4 C                    -0.936842
      5 C                     1.058614
      6 C                    -0.421731
      7 N                    -0.505542
      8 C                     0.033156
      9 C                    -0.198415
     10 H                     0.417970
     11 H                     0.202178
     12 H                     0.211852
     13 H                     0.185873
     14 H                     0.190961
     15 H                     0.183539
     16 H                     0.195770
  ----------------------------------------
  Sum of atomic charges =     0.000000

 -----------------------------------------------------------------
                    Cartesian Multipole Moments
 -----------------------------------------------------------------
    Charge (ESU x 10^10)
                 0.0000
    Dipole Moment (Debye)
         X      -1.5778      Y       1.6327      Z       0.0008
       Tot       2.2705
    Quadrupole Moments (Debye-Ang)
        XX     -44.5139     XY      -3.3388     YY     -43.7752
        XZ      -0.0019     YZ       0.0029     ZZ     -59.6207
    Octopole Moments (Debye-Ang^2)
       XXX     -16.2143    XXY       8.9474    XYY      -7.6802
       YYY      10.9062    XXZ       0.0000    XYZ      -0.0061
       YYZ       0.0048    XZZ      -2.4198    YZZ       2.2769
       ZZZ      -0.0029
    Hexadecapole Moments (Debye-Ang^3)
      XXXX    -819.0104   XXXY     -22.8026   XXYY    -200.4221
      XYYY     -19.6884   YYYY    -375.2566   XXXZ       0.0012
      XXYZ       0.0110   XYYZ      -0.0099   YYYZ       0.0106
      XXZZ    -195.3254   XYZZ      -4.1821   YYZZ     -97.3285
      XZZZ       0.0056   YZZZ      -0.0012   ZZZZ     -74.1234
 -----------------------------------------------------------------
 Calculating analytic gradient of the CIS energy
 CIS relaxed dipole moment
            1
    1  -0.7515325
    2   0.5108259
    3   0.0002860
	Magnitude:	 0.909 au	 2.310 Debye
 CIS 2 State Energy is -363.3942907260
 Gradient of the state energy (including CIS Excitation Energy)
            1           2           3           4           5           6
    1   0.0052847   0.0080780  -0.0092686   0.0118874  -0.0045567   0.0042974
    2   0.0083374  -0.0144436   0.0092532  -0.0158731   0.0141438  -0.0087320
    3  -0.0000025  -0.0000014  -0.0000025  -0.0000014   0.0000006  -0.0000001
            7           8           9          10          11          12
    1  -0.0215729   0.0129363  -0.0044679  -0.0008486  -0.0009979  -0.0016490
    2  -0.0091350  -0.0126978   0.0279008   0.0017661  -0.0015933   0.0000215
    3  -0.0000013   0.0000155  -0.0000159   0.0000106  -0.0000007  -0.0000020
           13          14          15          16
    1   0.0012789  -0.0002926   0.0009524  -0.0010610
    2   0.0010929   0.0014598  -0.0000620  -0.0014388
    3   0.0000000   0.0000004   0.0000003   0.0000001
 Gradient time:  CPU 41.78 s  wall 10.50 s
 Geometry Optimization Parameters
   NAtoms,    NIC,     NZ,  NCons,   NDum,   NFix, NCnnct, MaxDiis
       16     116       0       0       0       0       0       0

 Cartesian Hessian Update
 Hessian updated using BFGS update


** GEOMETRY OPTIMIZATION IN DELOCALIZED INTERNAL COORDINATES **
   Searching for a Minimum

   Optimization Cycle:   3

                       Coordinates (Angstroms)
     ATOM                X               Y               Z
      1  C         2.1937961272   -0.6985504244   -0.0000483738
      2  C         2.1696787031    0.7324910736   -0.0000285389
      3  C         0.9291960395    1.4653053270    0.0000323758
      4  C        -0.2520940030    0.6791144635    0.0000680156
      5  C        -0.2570255156   -0.7763631559    0.0000387791
      6  C         0.9855108050   -1.4822878979    0.0000136574
      7  N        -1.5820733227    1.0753538179    0.0000117071
      8  C        -1.6328497256   -1.1820585519    0.0000732496
      9  C        -2.4251754217   -0.0112480675   -0.0000440806
     10  H        -1.8897622588    2.0396067595    0.0007002144
     11  H        -2.0170116861   -2.1979554211   -0.0000224326
     12  H        -3.5030991556    0.1087892889   -0.0001438565
     13  H         3.1100453335    1.2825409872   -0.0000660016
     14  H         0.9060346437    2.5539032101    0.0000054518
     15  H         3.1577944852   -1.2054248122   -0.0000983208
     16  H         1.0101299031   -2.5706641041    0.0000341352
   Point Group: c1    Number of degrees of freedom:    42


   Energy is   -363.394290726

 Hessian updated using BFGS update

 41 Hessian modes will be used to form the next step
  Hessian Eigenvalues:
     0.018594    0.019738    0.020011    0.020794    0.021683    0.022200
     0.022636    0.023004    0.023236    0.023608    0.023851    0.023984
     0.024127    0.159571    0.160000    0.160000    0.160000    0.160007
     0.162076    0.220073    0.222896    0.226431    0.245853    0.277235
     0.344079    0.357142    0.357216    0.357963    0.358047    0.364218
     0.364609    0.379391    0.410068    0.426988    0.450850    0.458741
     0.471594    0.474898    0.478059    0.501378    0.528713

 Minimum search - taking simple RFO step
 Searching for Lamda that Minimizes Along All modes
 Value Taken    Lamda =  -0.00308593
 Step Taken.  Stepsize is  0.085951

                             Maximum     Tolerance    Cnvgd?
         Gradient           0.013514      0.000300      NO
         Displacement       0.031473      0.001200      NO
         Energy change     -0.004420      0.000001      NO


 New Cartesian Coordinates Obtained by Inverse Iteration

 Displacement from previous Coordinates is:  0.109526
 ----------------------------------------------------------------
             Standard Nuclear Orientation (Angstroms)
    I     Atom           X                Y                Z
 ----------------------------------------------------------------
    1      C       2.1759933829    -0.6956760813    -0.0000322713
    2      C       2.1607037480     0.7430941693     0.0000120405
    3      C       0.9324922116     1.4675251397     0.0000517732
    4      C      -0.2510860586     0.6870479018     0.0000554941
    5      C      -0.2628934421    -0.7822889688     0.0000003744
    6      C       0.9721066922    -1.4766289542    -0.0000159948
    7      N      -1.5621401674     1.0769179272    -0.0000359458
    8      C      -1.6362421201    -1.1857661848     0.0000265627
    9      C      -2.4092824165    -0.0275376165     0.0000648864
   10      H      -1.8716063077     2.0384270777     0.0004856351
   11      H      -2.0201363234    -2.1987229365    -0.0000604950
   12      H      -3.4844917307     0.0956543360     0.0000514610
   13      H       3.1018624429     1.2866884707    -0.0000077159
   14      H       0.9129264938     2.5539675717     0.0000239202
   15      H       3.1360495014    -1.2076028944    -0.0000824058
   16      H       1.0088390449    -2.5625464649    -0.0000113378
 ----------------------------------------------------------------
 Molecular Point Group                 C1    NOp =  1
 Largest Abelian Subgroup              C1    NOp =  1
 Nuclear Repulsion Energy =         395.23190008 hartrees
 There are       31 alpha and       31 beta electrons
 Applying Cartesian multipole field
    Component          Value
    ---------          -----
     (2,0,0)        1.00000E-11
     (0,2,0)        2.00000E-11
     (0,0,2)       -3.00000E-11
 Nucleus-field energy     =     0.0000000121 hartrees
 Requested basis set is 6-31+G(d)
 There are 59 shells and 185 basis functions
 A cutoff of  1.0D-12 yielded   1656 shell pairs
 There are     17099 function pairs
 Smallest overlap matrix eigenvalue = 1.53E-06
 Guess MOs from SCF MO coefficient file

 -----------------------------------------------------------------------
  General SCF calculation program by
  Eric Jon Sundstrom, Paul Horn, Yuezhi Mao, Dmitri Zuev, Alec White,
  David Stuck, Shaama M.S., Shane Yost, Joonho Lee, David Small,
  Daniel Levine, Susi Lehtola, Hugh Burton, Evgeny Epifanovsky,
  Bang C. Huynh
 -----------------------------------------------------------------------
 Exchange:     0.4200 Hartree-Fock + 1.0000 BMK
 Correlation:  1.0000 BMK
 Using SG-2 standard quadrature grid
 using 4 threads for integral computing
 -------------------------------------------------------
 OpenMP Integral computing Module                
 Release: version 1.0, May 2013, Q-Chem Inc. Pittsburgh 
 -------------------------------------------------------
 A restricted SCF calculation will be
 performed using DIIS
 SCF converges when DIIS error is below 1.0e-08
 ---------------------------------------
  Cycle       Energy         DIIS error
 ---------------------------------------
    1    -363.5765729671      3.99e-04  
    2    -363.5774607608      9.38e-05  
    3    -363.5774817353      7.46e-05  
    4    -363.5775054743      1.60e-05  
    5    -363.5775066741      5.29e-06  
    6    -363.5775068514      2.51e-06  
    7    -363.5775068841      9.93e-07  
    8    -363.5775068902      3.60e-07  
    9    -363.5775068909      1.54e-07  
   10    -363.5775068909      2.00e-08  
   11    -363.5775068910      1.01e-08  
   12    -363.5775068910      3.21e-09  Convergence criterion met
 ---------------------------------------
 SCF time:   CPU 114.10s  wall 29.00s 
 SCF   energy in the final basis set =     -363.5775068910
 Total energy in the final basis set =     -363.5775068910
 
 Direct TDDFT/TDA calculation will be performed
 Exchange:     0.4200 Hartree-Fock + 1.0000 BMK
 Correlation:  1.0000 BMK
 Using SG-2 standard quadrature grid
 Singlet excitation energies requested
 CIS energy converged when residual is below 10e- 6
 ---------------------------------------------------
 Iter    Rts Conv    Rts Left    Ttl Dev     Max Dev
 ---------------------------------------------------
   1         0           3      0.003746    0.001808
   2         0           3      0.001120    0.000560
   3         0           3      0.000400    0.000215
   4         0           3      0.000150    0.000070
   5         0           3      0.000050    0.000025
   6         0           3      0.000018    0.000008
   7         0           3      0.000006    0.000003
   8         3           0      0.000002    0.000001    Roots Converged
 ---------------------------------------------------
 
 ---------------------------------------------------
         TDDFT/TDA Excitation Energies              
 ---------------------------------------------------

 Excited state   1: excitation energy (eV) =    4.9356
 Total energy for state  1:                  -363.39612590 au
    Multiplicity: Singlet
    Trans. Mom.: -0.3843 X  -0.4000 Y  -0.0000 Z
    Strength   :     0.0372073132
    D(   30) --> V(    1) amplitude =  0.7977
    D(   31) --> V(    3) amplitude =  0.5379

 Excited state   2: excitation energy (eV) =    5.0815
 Total energy for state  2:                  -363.39076595 au
    Multiplicity: Singlet
    Trans. Mom.: -0.7460 X   0.6617 Y   0.0001 Z
    Strength   :     0.1237874931
    D(   30) --> V(    3) amplitude = -0.3105
    D(   31) --> V(    1) amplitude =  0.8940

 Excited state   3: excitation energy (eV) =    5.6781
 Total energy for state  3:                  -363.36884170 au
    Multiplicity: Singlet
    Trans. Mom.: -0.0001 X   0.0001 Y  -0.1469 Z
    Strength   :     0.0030005903
    D(   31) --> V(    2) amplitude =  0.9803
 
 ---------------------------------------------------
 Calculating Relaxed Density
 ---------------------------------------------------
 Iter    Rts Conv    Rts Left    Ttl Dev     Max Dev
 ---------------------------------------------------
   1         0           3      0.001306    0.000772
   2         0           3      0.000532    0.000313
   3         0           3      0.000122    0.000056
   4         0           3      0.000042    0.000024
   5         0           3      0.000010    0.000006
   6         2           1      0.000001    0.000001
   7         3           0      0.000000    0.000000    Roots Converged
 ---------------------------------------------------
  SETman timing summary (seconds)
  CPU time               490.95s
  System time              0.00s
  Wall time              123.42s
 
 --------------------------------------------------------------
 
                    Orbital Energies (a.u.)
 --------------------------------------------------------------
 
 Alpha MOs
 -- Occupied --
-14.7280 -10.5256 -10.5249 -10.4923 -10.4870 -10.4870 -10.4861 -10.4814
-10.4771  -1.0623  -0.8987  -0.8507  -0.7940  -0.7793  -0.6828  -0.6524
 -0.6349  -0.5900  -0.5384  -0.5165  -0.4806  -0.4767  -0.4707  -0.4508
 -0.4362  -0.3942  -0.3773  -0.3702  -0.3187  -0.2489  -0.2351
 -- Virtual --
  0.0024   0.0309   0.0426   0.0496   0.0549   0.0661   0.0701   0.0769
  0.0892   0.0941   0.0961   0.0996   0.1235   0.1279   0.1332   0.1360
  0.1472   0.1646   0.1733   0.1738   0.1848   0.1919   0.1978   0.2006
  0.2008   0.2124   0.2189   0.2252   0.2264   0.2305   0.2319   0.2350
  0.2498   0.2562   0.2624   0.2697   0.2733   0.2740   0.2862   0.2914
  0.2983   0.3018   0.3165   0.3293   0.3333   0.3436   0.3564   0.3667
  0.3825   0.4022   0.4116   0.4336   0.4675   0.4911   0.5558   0.6022
  0.6378   0.7255   0.7282   0.7520   0.7585   0.7759   0.7791   0.7822
  0.7913   0.7987   0.8067   0.8292   0.8368   0.8449   0.8653   0.9067
  0.9434   0.9664   0.9737   1.0076   1.0134   1.0193   1.0331   1.0437
  1.0536   1.0974   1.1183   1.1379   1.1590   1.1742   1.1797   1.2316
  1.2403   1.2658   1.2910   1.3052   1.3156   1.3773   1.3949   1.4201
  1.4261   1.4637   1.4853   1.4946   1.5362   1.5465   1.5688   1.5721
  1.5953   1.6482   1.7124   1.8430   1.9065   1.9604   1.9625   1.9755
  2.0128   2.0680   2.0767   2.0808   2.1180   2.1240   2.1918   2.2023
  2.2132   2.2576   2.2893   2.3011   2.3233   2.3253   2.3672   2.4276
  2.4754   2.5116   2.5984   2.6083   2.6777   2.6817   2.7029   2.7353
  2.7742   2.8499   2.8830   2.8977   3.0186   3.0247   3.1700   3.2752
  3.4264   4.2301   4.2994   4.3583   4.3844   4.4238   4.4640   4.5399
  4.5830   4.8223
 --------------------------------------------------------------
 
          Ground-State Mulliken Net Atomic Charges

     Atom                 Charge (a.u.)
  ----------------------------------------
      1 C                    -0.074277
      2 C                    -0.390013
      3 C                    -0.118670
      4 C                    -0.904866
      5 C                     0.995829
      6 C                    -0.468690
      7 N                    -0.511854
      8 C                     0.106361
      9 C                    -0.218214
     10 H                     0.417795
     11 H                     0.204809
     12 H                     0.209801
     13 H                     0.186108
     14 H                     0.189958
     15 H                     0.181224
     16 H                     0.194700
  ----------------------------------------
  Sum of atomic charges =     0.000000

 -----------------------------------------------------------------
                    Cartesian Multipole Moments
 -----------------------------------------------------------------
    Charge (ESU x 10^10)
                -0.0000
    Dipole Moment (Debye)
         X      -1.6294      Y       1.5715      Z       0.0007
       Tot       2.2638
    Quadrupole Moments (Debye-Ang)
        XX     -44.7440     XY      -3.0496     YY     -43.6804
        XZ      -0.0018     YZ       0.0023     ZZ     -59.4855
    Octopole Moments (Debye-Ang^2)
       XXX     -15.9147    XXY       8.5452    XYY      -7.8561
       YYY      10.5275    XXZ       0.0013    XYZ      -0.0045
       YYZ       0.0026    XZZ      -2.5068    YZZ       2.1576
       ZZZ      -0.0033
    Hexadecapole Moments (Debye-Ang^3)
      XXXX    -814.6597   XXXY     -22.4506   XXYY    -198.5465
      XYYY     -21.1141   YYYY    -375.9953   XXXZ      -0.0039
      XXYZ       0.0079   XYYZ      -0.0062   YYYZ       0.0060
      XXZZ    -193.1693   XYZZ      -4.7496   YYZZ     -97.1020
      XZZZ       0.0054   YZZZ      -0.0034   ZZZZ     -73.7002
 -----------------------------------------------------------------
 Calculating analytic gradient of the CIS energy
 CIS relaxed dipole moment
            1
    1  -1.7290708
    2   0.5988542
    3   0.0000924
	Magnitude:	 1.830 au	 4.651 Debye
 CIS 2 State Energy is -363.3907659485
 Gradient of the state energy (including CIS Excitation Energy)
            1           2           3           4           5           6
    1  -0.0010167  -0.0061785   0.0178806  -0.0212125  -0.0000176  -0.0114711
    2  -0.0257807   0.0407951  -0.0049848   0.0354208  -0.0290569   0.0035067
    3  -0.0000016   0.0000026  -0.0000093   0.0000172  -0.0000082   0.0000021
            7           8           9          10          11          12
    1   0.0391003  -0.0262281   0.0056079   0.0026333   0.0006231   0.0005047
    2   0.0257536   0.0094242  -0.0520769  -0.0013733   0.0003781  -0.0013740
    3  -0.0000211   0.0000114   0.0000026   0.0000083  -0.0000019  -0.0000018
           13          14          15          16
    1  -0.0006974   0.0009738  -0.0001049  -0.0003969
    2   0.0001055  -0.0005600  -0.0007130   0.0005356
    3  -0.0000001   0.0000006  -0.0000006  -0.0000001
 Gradient time:  CPU 42.01 s  wall 10.57 s
 Geometry Optimization Parameters
   NAtoms,    NIC,     NZ,  NCons,   NDum,   NFix, NCnnct, MaxDiis
       16     116       0       0       0       0       0       0

 Cartesian Hessian Update
 Hessian updated using BFGS update


** GEOMETRY OPTIMIZATION IN DELOCALIZED INTERNAL COORDINATES **
   Searching for a Minimum

   Optimization Cycle:   4

                       Coordinates (Angstroms)
     ATOM                X               Y               Z
      1  C         2.1759933829   -0.6956760813   -0.0000322713
      2  C         2.1607037480    0.7430941693    0.0000120405
      3  C         0.9324922116    1.4675251397    0.0000517732
      4  C        -0.2510860586    0.6870479018    0.0000554941
      5  C        -0.2628934421   -0.7822889688    0.0000003744
      6  C         0.9721066922   -1.4766289542   -0.0000159948
      7  N        -1.5621401674    1.0769179272   -0.0000359458
      8  C        -1.6362421201   -1.1857661848    0.0000265627
      9  C        -2.4092824165   -0.0275376165    0.0000648864
     10  H        -1.8716063077    2.0384270777    0.0004856351
     11  H        -2.0201363234   -2.1987229365   -0.0000604950
     12  H        -3.4844917307    0.0956543360    0.0000514610
     13  H         3.1018624429    1.2866884707   -0.0000077159
     14  H         0.9129264938    2.5539675717    0.0000239202
     15  H         3.1360495014   -1.2076028944   -0.0000824058
     16  H         1.0088390449   -2.5625464649   -0.0000113378
   Point Group: c1    Number of degrees of freedom:    42


   Energy is   -363.390765948

 Hessian updated using BFGS update

 41 Hessian modes will be used to form the next step
  Hessian Eigenvalues:
     0.018594    0.019738    0.020011    0.020794    0.021683    0.022200
     0.022636    0.023004    0.023236    0.023608    0.023851    0.023984
     0.024127    0.159420    0.159999    0.160000    0.160000    0.160199
     0.161688    0.220160    0.224631    0.226655    0.246296    0.277382
     0.352045    0.357146    0.357514    0.357865    0.362262    0.364365
     0.370939    0.385239    0.393527    0.427576    0.447314    0.455371
     0.471690    0.475273    0.489049    0.505815    1.427813

 Minimum search - taking simple RFO step
 Searching for Lamda that Minimizes Along All modes
 Value Taken    Lamda =  -0.00415786
 Step Taken.  Stepsize is  0.057049

                             Maximum     Tolerance    Cnvgd?
         Gradient           0.034131      0.000300      NO
         Displacement       0.023905      0.001200      NO
         Energy change      0.003525      0.000001      NO


 New Cartesian Coordinates Obtained by Inverse Iteration

 Displacement from previous Coordinates is:  0.076670
 ----------------------------------------------------------------
             Standard Nuclear Orientation (Angstroms)
    I     Atom           X                Y                Z
 ----------------------------------------------------------------
    1      C       2.1814720057    -0.6939541311    -0.0000247221
    2      C       2.1591917925     0.7313626024     0.0000119020
    3      C       0.9275769077     1.4568526002     0.0000485320
    4      C      -0.2513031656     0.6786092664     0.0000399792
    5      C      -0.2563942334    -0.7762717053    -0.0000083052
    6      C       0.9806816717    -1.4724531926    -0.0000190622
    7      N      -1.5705556862     1.0725520129    -0.0000293349
    8      C      -1.6310149450    -1.1770986481     0.0000024191
    9      C      -2.4161389191    -0.0174374669     0.0000845398
   10      H      -1.8794137563     2.0346701885     0.0004617617
   11      H      -2.0142628184    -2.1904288992    -0.0000772661
   12      H      -3.4912125639     0.1063814028     0.0000941483
   13      H       3.0991403005     1.2771617990    -0.0000032047
   14      H       0.9058643321     2.5432770088     0.0000213022
   15      H       3.1429323820    -1.2022672824    -0.0000648369
   16      H       1.0165316471    -2.5584030628    -0.0000118711
 ----------------------------------------------------------------
 Molecular Point Group                 C1    NOp =  1
 Largest Abelian Subgroup              C1    NOp =  1
 Nuclear Repulsion Energy =         395.78683400 hartrees
 There are       31 alpha and       31 beta electrons
 Applying Cartesian multipole field
    Component          Value
    ---------          -----
     (2,0,0)        1.00000E-11
     (0,2,0)        2.00000E-11
     (0,0,2)       -3.00000E-11
 Nucleus-field energy     =     0.0000000120 hartrees
 Requested basis set is 6-31+G(d)
 There are 59 shells and 185 basis functions
 A cutoff of  1.0D-12 yielded   1656 shell pairs
 There are     17099 function pairs
 Smallest overlap matrix eigenvalue = 1.47E-06
 Guess MOs from SCF MO coefficient file

 -----------------------------------------------------------------------
  General SCF calculation program by
  Eric Jon Sundstrom, Paul Horn, Yuezhi Mao, Dmitri Zuev, Alec White,
  David Stuck, Shaama M.S., Shane Yost, Joonho Lee, David Small,
  Daniel Levine, Susi Lehtola, Hugh Burton, Evgeny Epifanovsky,
  Bang C. Huynh
 -----------------------------------------------------------------------
 Exchange:     0.4200 Hartree-Fock + 1.0000 BMK
 Correlation:  1.0000 BMK
 Using SG-2 standard quadrature grid
 using 4 threads for integral computing
 -------------------------------------------------------
 OpenMP Integral computing Module                
 Release: version 1.0, May 2013, Q-Chem Inc. Pittsburgh 
 -------------------------------------------------------
 A restricted SCF calculation will be
 performed using DIIS
 SCF converges when DIIS error is below 1.0e-08
 ---------------------------------------
  Cycle       Energy         DIIS error
 ---------------------------------------
    1    -363.5781374031      2.94e-04  
    2    -363.5785515335      6.94e-05  
    3    -363.5785569067      6.34e-05  
    4    -363.5785745798      9.75e-06  
    5    -363.5785750130      4.19e-06  
    6    -363.5785751071      1.96e-06  
    7    -363.5785751274      6.35e-07  
    8    -363.5785751295      2.24e-07  
    9    -363.5785751298      8.84e-08  
   10    -363.5785751298      2.41e-08  
   11    -363.5785751298      1.10e-08  
   12    -363.5785751298      2.36e-09  Convergence criterion met
 ---------------------------------------
 SCF time:   CPU 114.65s  wall 29.00s 
 SCF   energy in the final basis set =     -363.5785751298
 Total energy in the final basis set =     -363.5785751298
 
 Direct TDDFT/TDA calculation will be performed
 Exchange:     0.4200 Hartree-Fock + 1.0000 BMK
 Correlation:  1.0000 BMK
 Using SG-2 standard quadrature grid
 Singlet excitation energies requested
 CIS energy converged when residual is below 10e- 6
 ---------------------------------------------------
 Iter    Rts Conv    Rts Left    Ttl Dev     Max Dev
 ---------------------------------------------------
   1         0           3      0.003743    0.001822
   2         0           3      0.001078    0.000564
   3         0           3      0.000405    0.000192
   4         0           3      0.000143    0.000067
   5         0           3      0.000045    0.000023
   6         0           3      0.000016    0.000007
   7         1           2      0.000005    0.000002
   8         3           0      0.000002    0.000001    Roots Converged
 ---------------------------------------------------
 
 ---------------------------------------------------
         TDDFT/TDA Excitation Energies              
 ---------------------------------------------------

 Excited state   1: excitation energy (eV) =    4.9808
 Total energy for state  1:                  -363.39553524 au
    Multiplicity: Singlet
    Trans. Mom.: -0.0590 X  -0.5675 Y  -0.0000 Z
    Strength   :     0.0397216761
    D(   30) --> V(    1) amplitude =  0.7230
    D(   31) --> V(    1) amplitude = -0.4304
    D(   31) --> V(    3) amplitude = -0.4758

 Excited state   2: excitation energy (eV) =    5.0146
 Total energy for state  2:                  -363.39429298 au
    Multiplicity: Singlet
    Trans. Mom.: -0.8418 X   0.5579 Y   0.0001 Z
    Strength   :     0.1253030402
    D(   30) --> V(    1) amplitude =  0.3288
    D(   30) --> V(    3) amplitude =  0.2529
    D(   31) --> V(    1) amplitude =  0.8149
    D(   31) --> V(    3) amplitude = -0.3416

 Excited state   3: excitation energy (eV) =    5.6030
 Total energy for state  3:                  -363.37266985 au
    Multiplicity: Singlet
    Trans. Mom.: -0.0001 X   0.0001 Y  -0.1467 Z
    Strength   :     0.0029550003
    D(   31) --> V(    2) amplitude =  0.9812
 
 ---------------------------------------------------
 Calculating Relaxed Density
 ---------------------------------------------------
 Iter    Rts Conv    Rts Left    Ttl Dev     Max Dev
 ---------------------------------------------------
   1         0           3      0.001367    0.000769
   2         0           3      0.000547    0.000296
   3         0           3      0.000125    0.000053
   4         0           3      0.000042    0.000022
   5         0           3      0.000010    0.000005
   6         2           1      0.000001    0.000001
   7         3           0      0.000000    0.000000    Roots Converged
 ---------------------------------------------------
  SETman timing summary (seconds)
  CPU time               494.93s
  System time              0.00s
  Wall time              124.45s
 
 --------------------------------------------------------------
 
                    Orbital Energies (a.u.)
 --------------------------------------------------------------
 
 Alpha MOs
 -- Occupied --
-14.7275 -10.5258 -10.5236 -10.4923 -10.4868 -10.4860 -10.4855 -10.4808
-10.4758  -1.0631  -0.9015  -0.8486  -0.7973  -0.7781  -0.6841  -0.6522
 -0.6347  -0.5912  -0.5371  -0.5184  -0.4806  -0.4762  -0.4713  -0.4505
 -0.4368  -0.3941  -0.3782  -0.3724  -0.3165  -0.2527  -0.2327
 -- Virtual --
  0.0017   0.0307   0.0442   0.0496   0.0551   0.0661   0.0703   0.0769
  0.0891   0.0941   0.0962   0.0996   0.1239   0.1273   0.1336   0.1360
  0.1468   0.1648   0.1732   0.1741   0.1849   0.1916   0.1979   0.2013
  0.2016   0.2117   0.2191   0.2259   0.2269   0.2312   0.2325   0.2362
  0.2501   0.2557   0.2635   0.2702   0.2731   0.2740   0.2857   0.2918
  0.2995   0.3030   0.3155   0.3300   0.3352   0.3437   0.3573   0.3681
  0.3861   0.4014   0.4110   0.4342   0.4676   0.4923   0.5572   0.6074
  0.6431   0.7246   0.7279   0.7517   0.7625   0.7767   0.7790   0.7812
  0.7905   0.8008   0.8073   0.8293   0.8367   0.8450   0.8642   0.9073
  0.9434   0.9660   0.9721   1.0090   1.0136   1.0188   1.0335   1.0447
  1.0538   1.0968   1.1181   1.1381   1.1591   1.1741   1.1822   1.2330
  1.2395   1.2677   1.2923   1.3058   1.3151   1.3787   1.3939   1.4205
  1.4260   1.4661   1.4836   1.4976   1.5403   1.5449   1.5691   1.5713
  1.6005   1.6485   1.7088   1.8450   1.9080   1.9649   1.9653   1.9769
  2.0150   2.0709   2.0749   2.0818   2.1176   2.1281   2.1967   2.2105
  2.2180   2.2634   2.2987   2.3012   2.3240   2.3283   2.3695   2.4296
  2.4716   2.5146   2.5985   2.6111   2.6794   2.6896   2.7042   2.7370
  2.7796   2.8524   2.8882   2.9004   3.0191   3.0257   3.1675   3.2817
  3.4381   4.2332   4.3039   4.3563   4.3838   4.4239   4.4655   4.5407
  4.5832   4.8273
 --------------------------------------------------------------
 
          Ground-State Mulliken Net Atomic Charges

     Atom                 Charge (a.u.)
  ----------------------------------------
      1 C                    -0.069592
      2 C                    -0.393160
      3 C                    -0.131376
      4 C                    -0.937637
      5 C                     1.055521
      6 C                    -0.450975
      7 N                    -0.511211
      8 C                     0.057790
      9 C                    -0.202494
     10 H                     0.417218
     11 H                     0.202169
     12 H                     0.211323
     13 H                     0.185497
     14 H                     0.189694
     15 H                     0.182367
     16 H                     0.194867
  ----------------------------------------
  Sum of atomic charges =     0.000000

 -----------------------------------------------------------------
                    Cartesian Multipole Moments
 -----------------------------------------------------------------
    Charge (ESU x 10^10)
                 0.0000
    Dipole Moment (Debye)
         X      -1.5854      Y       1.6113      Z       0.0007
       Tot       2.2605
    Quadrupole Moments (Debye-Ang)
        XX     -44.5832     XY      -3.2718     YY     -43.8469
        XZ      -0.0018     YZ       0.0021     ZZ     -59.4339
    Octopole Moments (Debye-Ang^2)
       XXX     -16.0891    XXY       8.7768    XYY      -7.6457
       YYY      10.7698    XXZ       0.0019    XYZ      -0.0044
       YYZ       0.0025    XZZ      -2.3638    YZZ       2.2315
       ZZZ      -0.0029
    Hexadecapole Moments (Debye-Ang^3)
      XXXX    -813.6729   XXXY     -22.5770   XXYY    -198.8272
      XYYY     -20.0944   YYYY    -373.2202   XXXZ      -0.0050
      XXYZ       0.0073   XYYZ      -0.0056   YYYZ       0.0051
      XXZZ    -193.3362   XYZZ      -4.2473   YYZZ     -96.3546
      XZZZ       0.0054   YZZZ      -0.0038   ZZZZ     -73.5792
 -----------------------------------------------------------------
 Calculating analytic gradient of the CIS energy
 CIS relaxed dipole moment
            1
    1  -1.6440424
    2   0.6613768
    3   0.0001394
	Magnitude:	 1.772 au	 4.504 Debye
 CIS 2 State Energy is -363.3942929756
 Gradient of the state energy (including CIS Excitation Energy)
            1           2           3           4           5           6
    1  -0.0020731   0.0011596   0.0051931  -0.0100472   0.0059653  -0.0085009
    2  -0.0110955   0.0215554  -0.0090975   0.0280869  -0.0168082   0.0067926
    3   0.0000003   0.0000009  -0.0000028   0.0000086  -0.0000048   0.0000016
            7           8           9          10          11          12
    1   0.0341279  -0.0238770  -0.0039557   0.0014624   0.0004429   0.0007053
    2   0.0134937   0.0096846  -0.0404699  -0.0006716   0.0004777  -0.0007030
    3  -0.0000187   0.0000037   0.0000085   0.0000064  -0.0000012  -0.0000021
           13          14          15          16
    1  -0.0005271   0.0002453  -0.0002374  -0.0000834
    2  -0.0007534  -0.0004106  -0.0004064   0.0003251
    3  -0.0000001   0.0000001  -0.0000006   0.0000001
 Gradient time:  CPU 40.96 s  wall 10.29 s
 Geometry Optimization Parameters
   NAtoms,    NIC,     NZ,  NCons,   NDum,   NFix, NCnnct, MaxDiis
       16     116       0       0       0       0       0       0

 Cartesian Hessian Update
 Hessian updated using BFGS update


** GEOMETRY OPTIMIZATION IN DELOCALIZED INTERNAL COORDINATES **
   Searching for a Minimum

   Optimization Cycle:   5

                       Coordinates (Angstroms)
     ATOM                X               Y               Z
      1  C         2.1814720057   -0.6939541311   -0.0000247221
      2  C         2.1591917925    0.7313626024    0.0000119020
      3  C         0.9275769077    1.4568526002    0.0000485320
      4  C        -0.2513031656    0.6786092664    0.0000399792
      5  C        -0.2563942334   -0.7762717053   -0.0000083052
      6  C         0.9806816717   -1.4724531926   -0.0000190622
      7  N        -1.5705556862    1.0725520129   -0.0000293349
      8  C        -1.6310149450   -1.1770986481    0.0000024191
      9  C        -2.4161389191   -0.0174374669    0.0000845398
     10  H        -1.8794137563    2.0346701885    0.0004617617
     11  H        -2.0142628184   -2.1904288992   -0.0000772661
     12  H        -3.4912125639    0.1063814028    0.0000941483
     13  H         3.0991403005    1.2771617990   -0.0000032047
     14  H         0.9058643321    2.5432770088    0.0000213022
     15  H         3.1429323820   -1.2022672824   -0.0000648369
     16  H         1.0165316471   -2.5584030628   -0.0000118711
   Point Group: c1    Number of degrees of freedom:    42


   Energy is   -363.394292976

 Hessian updated using BFGS update

 42 Hessian modes will be used to form the next step
  Hessian Eigenvalues:
     0.018594    0.019738    0.020011    0.020794    0.021683    0.022200
     0.022636    0.023004    0.023236    0.023608    0.023851    0.023984
     0.024127    0.158286    0.159765    0.160000    0.160000    0.160000
     0.160242    0.161564    0.207300    0.222393    0.231007    0.246544
     0.268570    0.345924    0.355163    0.357149    0.357669    0.358490
     0.363376    0.364527    0.383721    0.396988    0.422718    0.428150
     0.448073    0.462892    0.471724    0.476246    0.495513    0.754676

 Minimum search - taking simple RFO step
 Searching for Lamda that Minimizes Along All modes
 Value Taken    Lamda =  -0.00910278
 Step Taken.  Stepsize is  0.183039

                             Maximum     Tolerance    Cnvgd?
         Gradient           0.026380      0.000300      NO
         Displacement       0.094331      0.001200      NO
         Energy change     -0.003527      0.000001      NO


 New Cartesian Coordinates Obtained by Inverse Iteration

 Displacement from previous Coordinates is:  0.220841
 ----------------------------------------------------------------
             Standard Nuclear Orientation (Angstroms)
    I     Atom           X                Y                Z
 ----------------------------------------------------------------
    1      C       2.1931843248    -0.7066538117    -0.0000346788
    2      C       2.1374239001     0.7014114696    -0.0000008043
    3      C       0.9113058342     1.4497508460     0.0000431369
    4      C      -0.2606828437     0.6590518080     0.0000614659
    5      C      -0.2386528612    -0.7686637598     0.0000168541
    6      C       1.0026839497    -1.4907037032    -0.0000250582
    7      N      -1.6074325493     1.0834160208     0.0000377899
    8      C      -1.5962211414    -1.1627247402     0.0000253587
[...]
            1           2           3           4           5           6
    1  -0.0013793   0.0069024  -0.0027534  -0.0044187   0.0081870  -0.0073558
    2  -0.0005734   0.0082322  -0.0075760   0.0202200  -0.0073738   0.0052052
    3   0.0000005  -0.0000001   0.0000004   0.0000008  -0.0000000   0.0000001
            7           8           9          10          11          12
    1   0.0282026  -0.0204407  -0.0082607   0.0007491   0.0001951   0.0005601
    2   0.0057175   0.0067499  -0.0291801   0.0003174   0.0000173  -0.0003099
    3  -0.0000017  -0.0000007   0.0000009  -0.0000003   0.0000003   0.0000001
           13          14          15          16
    1  -0.0001916  -0.0000238  -0.0000424   0.0000702
    2  -0.0006895   0.0000526  -0.0006263  -0.0001832
    3  -0.0000000  -0.0000000  -0.0000001  -0.0000000
 Gradient time:  CPU 39.67 s  wall 9.97 s
 Geometry Optimization Parameters
   NAtoms,    NIC,     NZ,  NCons,   NDum,   NFix, NCnnct, MaxDiis
       16     116       0       0       0       0       0       0

 Cartesian Hessian Update
 Hessian updated using BFGS update


** GEOMETRY OPTIMIZATION IN DELOCALIZED INTERNAL COORDINATES **
   Searching for a Minimum

   Optimization Cycle:  49

                       Coordinates (Angstroms)
     ATOM                X               Y               Z
      1  C         2.1838644354   -0.6936531749   -0.0000426517
      2  C         2.1605426783    0.7299556202    0.0000197970
      3  C         0.9265832235    1.4561484606    0.0000812966
      4  C        -0.2525401300    0.6772685948    0.0000543621
      5  C        -0.2556636157   -0.7768833972   -0.0000026436
      6  C         0.9825624512   -1.4735395214   -0.0000541500
      7  N        -1.5725365854    1.0728789885    0.0001028720
      8  C        -1.6315750051   -1.1767955705    0.0000183284
      9  C        -2.4182309914   -0.0155319700    0.0000989918
     10  H        -1.8816666565    2.0354002788    0.0001489258
     11  H        -2.0144384220   -2.1908699626    0.0000004296
     12  H        -3.4933555484    0.1104185908    0.0001368592
     13  H         3.1000304406    1.2774676558    0.0000239508
     14  H         0.9042578242    2.5430890055    0.0001274032
     15  H         3.1452565429   -1.2028786184   -0.0000880918
     16  H         1.0200043096   -2.5599224876   -0.0000996982
   Point Group: c1    Number of degrees of freedom:    42


   Energy is   -363.394592656

 Hessian updated using BFGS update

 42 Hessian modes will be used to form the next step
  Hessian Eigenvalues:
     0.018594    0.019738    0.020011    0.020794    0.021683    0.022200
     0.022636    0.023004    0.023236    0.023608    0.023851    0.023984
     0.024128    0.155339    0.159703    0.160022    0.160060    0.160143
     0.160497    0.161572    0.216089    0.227895    0.243081    0.250202
     0.301108    0.355395    0.356842    0.357262    0.357752    0.363198
     0.364533    0.366807    0.398690    0.422341    0.430286    0.433631
     0.456717    0.472021    0.474005    0.491009    0.626601    2.358408

 Minimum search - taking simple RFO step
 Searching for Lamda that Minimizes Along All modes
 Value Taken    Lamda =  -0.00389073
 Step Taken.  Stepsize is  0.108355

                             Maximum     Tolerance    Cnvgd?
         Gradient           0.020710      0.000300      NO
         Displacement       0.046111      0.001200      NO
         Energy change     -0.004241      0.000001      NO


 New Cartesian Coordinates Obtained by Inverse Iteration

 Displacement from previous Coordinates is:  0.124249
 ----------------------------------------------------------------
             Standard Nuclear Orientation (Angstroms)
    I     Atom           X                Y                Z
 ----------------------------------------------------------------
    1      C       2.1869087892    -0.7062449456    -0.0000641614
    2      C       2.1428874411     0.7177765739    -0.0000002147
    3      C       0.9218097380     1.4598255461     0.0000746613
    4      C      -0.2565827271     0.6724520378     0.0001071012
    5      C      -0.2473460243    -0.7725507762     0.0000349303
    6      C       0.9915187848    -1.4872340787    -0.0000370781
    7      N      -1.5938801956     1.0813738322     0.0001648260
    8      C      -1.6078810262    -1.1704399692     0.0000670492
    9      C      -2.4092498692     0.0043206106     0.0000312519
   10      H      -1.9027470526     2.0432479490     0.0002386281
   11      H      -1.9975565122    -2.1821479449     0.0000115623
   12      H      -3.4878941684     0.1096581098    -0.0000084209
   13      H       3.0825067594     1.2680800582    -0.0000151520
   14      H       0.9080188688     2.5460793154     0.0001131390
   15      H       3.1565191907    -1.1982976916    -0.0001198495
   16      H       1.0160629547    -2.5733461344    -0.0000722916
 ----------------------------------------------------------------
 Molecular Point Group                 C1    NOp =  1
 Largest Abelian Subgroup              C1    NOp =  1
 Nuclear Repulsion Energy =         395.77574352 hartrees
 There are       31 alpha and       31 beta electrons
 Applying Cartesian multipole field
    Component          Value
    ---------          -----
     (2,0,0)        1.00000E-11
     (0,2,0)        2.00000E-11
     (0,0,2)       -3.00000E-11
 Nucleus-field energy     =     0.0000000120 hartrees
 Requested basis set is 6-31+G(d)
 There are 59 shells and 185 basis functions
 A cutoff of  1.0D-12 yielded   1656 shell pairs
 There are     17099 function pairs
 Smallest overlap matrix eigenvalue = 1.47E-06
 Guess MOs from SCF MO coefficient file

 -----------------------------------------------------------------------
  General SCF calculation program by
  Eric Jon Sundstrom, Paul Horn, Yuezhi Mao, Dmitri Zuev, Alec White,
  David Stuck, Shaama M.S., Shane Yost, Joonho Lee, David Small,
  Daniel Levine, Susi Lehtola, Hugh Burton, Evgeny Epifanovsky,
  Bang C. Huynh
 -----------------------------------------------------------------------
 Exchange:     0.4200 Hartree-Fock + 1.0000 BMK
 Correlation:  1.0000 BMK
 Using SG-2 standard quadrature grid
 using 4 threads for integral computing
 -------------------------------------------------------
 OpenMP Integral computing Module                
 Release: version 1.0, May 2013, Q-Chem Inc. Pittsburgh 
 -------------------------------------------------------
 A restricted SCF calculation will be
 performed using DIIS
 SCF converges when DIIS error is below 1.0e-08
 ---------------------------------------
  Cycle       Energy         DIIS error
 ---------------------------------------
    1    -363.5745904186      4.49e-04  
    2    -363.5759085130      9.70e-05  
    3    -363.5759395490      8.25e-05  
    4    -363.5759681600      2.40e-05  
    5    -363.5759708619      1.02e-05  
    6    -363.5759714686      4.26e-06  
    7    -363.5759715847      1.24e-06  
    8    -363.5759715938      4.87e-07  
    9    -363.5759715951      1.88e-07  
   10    -363.5759715953      4.24e-08  
   11    -363.5759715953      1.10e-08  
   12    -363.5759715953      7.06e-09  Convergence criterion met
 ---------------------------------------
 SCF time:   CPU 103.92s  wall 26.00s 
 SCF   energy in the final basis set =     -363.5759715953
 Total energy in the final basis set =     -363.5759715953
 
 Direct TDDFT/TDA calculation will be performed
 Exchange:     0.4200 Hartree-Fock + 1.0000 BMK
 Correlation:  1.0000 BMK
 Using SG-2 standard quadrature grid
 Singlet excitation energies requested
 CIS energy converged when residual is below 10e- 6
 ---------------------------------------------------
 Iter    Rts Conv    Rts Left    Ttl Dev     Max Dev
 ---------------------------------------------------
   1         0           3      0.003735    0.001800
   2         0           3      0.001069    0.000570
   3         0           3      0.000396    0.000218
   4         0           3      0.000139    0.000073
   5         0           3      0.000045    0.000023
   6         0           3      0.000017    0.000010
   7         1           2      0.000005    0.000003
   8         2           1      0.000002    0.000001
   9         3           0      0.000001    0.000001    Roots Converged
 ---------------------------------------------------
 
 ---------------------------------------------------
         TDDFT/TDA Excitation Energies              
 ---------------------------------------------------

 Excited state   1: excitation energy (eV) =    4.8539
 Total energy for state  1:                  -363.39759488 au
    Multiplicity: Singlet
    Trans. Mom.: -0.8978 X   0.6392 Y   0.0000 Z
    Strength   :     0.1444333811
    D(   30) --> V(    3) amplitude = -0.2453
    D(   31) --> V(    1) amplitude =  0.8881
    D(   31) --> V(    3) amplitude =  0.2631

 Excited state   2: excitation energy (eV) =    5.0343
 Total energy for state  2:                  -363.39096270 au
    Multiplicity: Singlet
    Trans. Mom.:  0.0443 X  -0.4372 Y  -0.0000 Z
    Strength   :     0.0238126755
    D(   30) --> V(    1) amplitude =  0.7464
    D(   31) --> V(    1) amplitude = -0.2732
    D(   31) --> V(    3) amplitude =  0.5593

 Excited state   3: excitation energy (eV) =    5.4445
 Total energy for state  3:                  -363.37588968 au
    Multiplicity: Singlet
    Trans. Mom.:  0.0000 X  -0.0000 Y  -0.1504 Z
    Strength   :     0.0030177492
    D(   31) --> V(    2) amplitude =  0.9836
 
 ---------------------------------------------------
 Calculating Relaxed Density
 ---------------------------------------------------
 Iter    Rts Conv    Rts Left    Ttl Dev     Max Dev
 ---------------------------------------------------
   1         0           3      0.001420    0.000779
   2         0           3      0.000565    0.000287
   3         0           3      0.000132    0.000054
   4         0           3      0.000043    0.000020
   5         0           3      0.000011    0.000005
   6         3           0      0.000000    0.000000    Roots Converged
 ---------------------------------------------------
  SETman timing summary (seconds)
  CPU time               450.11s
  System time              0.00s
  Wall time              113.87s
 
 --------------------------------------------------------------
 
                    Orbital Energies (a.u.)
 --------------------------------------------------------------
 
 Alpha MOs
 -- Occupied --
-14.7298 -10.5257 -10.5234 -10.4938 -10.4876 -10.4853 -10.4848 -10.4821
-10.4731  -1.0657  -0.9034  -0.8465  -0.8006  -0.7741  -0.6840  -0.6543
 -0.6329  -0.5935  -0.5352  -0.5190  -0.4825  -0.4792  -0.4722  -0.4466
 -0.4329  -0.3939  -0.3801  -0.3745  -0.3142  -0.2570  -0.2276
 -- Virtual --
  0.0012   0.0301   0.0441   0.0494   0.0556   0.0661   0.0707   0.0771
  0.0890   0.0940   0.0967   0.0995   0.1233   0.1272   0.1341   0.1360
  0.1466   0.1646   0.1733   0.1734   0.1842   0.1914   0.1973   0.2017
  0.2040   0.2101   0.2198   0.2262   0.2266   0.2314   0.2337   0.2368
  0.2499   0.2549   0.2653   0.2697   0.2714   0.2728   0.2840   0.2923
  0.3009   0.3046   0.3141   0.3300   0.3353   0.3425   0.3599   0.3698
  0.3877   0.3973   0.4081   0.4312   0.4695   0.4905   0.5574   0.6085
  0.6413   0.7244   0.7281   0.7506   0.7666   0.7773   0.7789   0.7836
  0.7898   0.8020   0.8090   0.8282   0.8351   0.8451   0.8640   0.9075
  0.9436   0.9626   0.9709   1.0085   1.0156   1.0193   1.0322   1.0453
  1.0545   1.0976   1.1169   1.1356   1.1569   1.1726   1.1859   1.2336
  1.2387   1.2680   1.2933   1.3047   1.3148   1.3816   1.3919   1.4218
  1.4231   1.4592   1.4845   1.4979   1.5389   1.5451   1.5660   1.5737
  1.6047   1.6448   1.7105   1.8368   1.9049   1.9635   1.9640   1.9725
  2.0105   2.0719   2.0779   2.0813   2.1165   2.1358   2.1943   2.2217
  2.2257   2.2556   2.2951   2.3009   2.3282   2.3344   2.3696   2.4368
  2.4663   2.5206   2.5919   2.6112   2.6766   2.6860   2.7025   2.7329
  2.7850   2.8524   2.8884   2.8988   3.0097   3.0304   3.1663   3.2771
  3.4357   4.2380   4.3037   4.3578   4.3754   4.4223   4.4675   4.5395
  4.5833   4.8266
 --------------------------------------------------------------
 
          Ground-State Mulliken Net Atomic Charges

     Atom                 Charge (a.u.)
  ----------------------------------------
      1 C                    -0.089242
      2 C                    -0.379539
      3 C                    -0.196425
      4 C                    -0.957845
      5 C                     1.111101
      6 C                    -0.368868
      7 N                    -0.496764
      8 C                    -0.012329
      9 C                    -0.194667
     10 H                     0.419958
     11 H                     0.199207
     12 H                     0.209899
     13 H                     0.181557
     14 H                     0.192450
     15 H                     0.184706
     16 H                     0.196802
  ----------------------------------------
  Sum of atomic charges =     0.000000

 -----------------------------------------------------------------
                    Cartesian Multipole Moments
 -----------------------------------------------------------------
    Charge (ESU x 10^10)
                 0.0000
    Dipole Moment (Debye)
         X      -1.5471      Y       1.7130      Z       0.0000
       Tot       2.3083
    Quadrupole Moments (Debye-Ang)
        XX     -44.6774     XY      -3.6886     YY     -43.7219
        XZ      -0.0003     YZ       0.0009     ZZ     -59.4686
    Octopole Moments (Debye-Ang^2)
       XXX     -15.9737    XXY       9.0736    XYY      -7.6812
       YYY      11.5274    XXZ      -0.0029    XYZ      -0.0009
       YYZ      -0.0008    XZZ      -2.2985    YZZ       2.3545
       ZZZ      -0.0069
    Hexadecapole Moments (Debye-Ang^3)
      XXXX    -813.3173   XXXY     -22.2340   XXYY    -198.7072
      XYYY     -17.6525   YYYY    -372.8042   XXXZ       0.0094
      XXYZ       0.0012   XYYZ       0.0009   YYYZ      -0.0019
      XXZZ    -193.0257   XYZZ      -3.0357   YYZZ     -96.7272
      XZZZ       0.0125   YZZZ      -0.0083   ZZZZ     -73.7511
 -----------------------------------------------------------------
 Calculating analytic gradient of the CIS energy
 CIS relaxed dipole moment
            1
    1  -0.8811421
    2   0.4455998
    3   0.0000426
	Magnitude:	 0.987 au	 2.510 Debye
 CIS 2 State Energy is -363.3909626983
 Gradient of the state energy (including CIS Excitation Energy)
            1           2           3           4           5           6
    1   0.0020199  -0.0113887   0.0057355   0.0053170  -0.0130228   0.0114446
    2   0.0004741  -0.0120708   0.0121858  -0.0320344   0.0112532  -0.0085376
    3  -0.0000013   0.0000006  -0.0000016  -0.0000015  -0.0000052  -0.0000001
            7           8           9          10          11          12
    1  -0.0432529   0.0318383   0.0132338  -0.0011809  -0.0002088  -0.0008718
    2  -0.0089461  -0.0098629   0.0453108  -0.0004732  -0.0000424   0.0006516
    3   0.0000057   0.0000112  -0.0000080   0.0000014   0.0000002  -0.0000018
           13          14          15          16
    1   0.0003218   0.0000252   0.0000387  -0.0000490
    2   0.0010235  -0.0001044   0.0008696   0.0003032
    3   0.0000001   0.0000001   0.0000002   0.0000002
 Gradient time:  CPU 39.66 s  wall 9.97 s
 Geometry Optimization Parameters
   NAtoms,    NIC,     NZ,  NCons,   NDum,   NFix, NCnnct, MaxDiis
       16     116       0       0       0       0       0       0

 Cartesian Hessian Update
 Hessian updated using BFGS update


** GEOMETRY OPTIMIZATION IN DELOCALIZED INTERNAL COORDINATES **
   Searching for a Minimum

   Optimization Cycle:  50

                       Coordinates (Angstroms)
     ATOM                X               Y               Z
      1  C         2.1869087892   -0.7062449456   -0.0000641614
      2  C         2.1428874411    0.7177765739   -0.0000002147
      3  C         0.9218097380    1.4598255461    0.0000746613
      4  C        -0.2565827271    0.6724520378    0.0001071012
      5  C        -0.2473460243   -0.7725507762    0.0000349303
      6  C         0.9915187848   -1.4872340787   -0.0000370781
      7  N        -1.5938801956    1.0813738322    0.0001648260
      8  C        -1.6078810262   -1.1704399692    0.0000670492
      9  C        -2.4092498692    0.0043206106    0.0000312519
     10  H        -1.9027470526    2.0432479490    0.0002386281
     11  H        -1.9975565122   -2.1821479449    0.0000115623
     12  H        -3.4878941684    0.1096581098   -0.0000084209
     13  H         3.0825067594    1.2680800582   -0.0000151520
     14  H         0.9080188688    2.5460793154    0.0001131390
     15  H         3.1565191907   -1.1982976916   -0.0001198495
     16  H         1.0160629547   -2.5733461344   -0.0000722916
   Point Group: c1    Number of degrees of freedom:    42


   Energy is   -363.390962698

 Hessian updated using BFGS update

 42 Hessian modes will be used to form the next step
  Hessian Eigenvalues:
     0.018594    0.019738    0.020011    0.020794    0.021683    0.022200
     0.022636    0.023004    0.023236    0.023608    0.023851    0.023984
     0.024128    0.159587    0.160013    0.160038    0.160114    0.160341
     0.160665    0.163312    0.222047    0.230661    0.246461    0.256018
     0.303118    0.355460    0.357176    0.357717    0.357918    0.363456
     0.364539    0.371809    0.399560    0.428026    0.433445    0.451735
     0.463688    0.472190    0.478150    0.607103    1.033671    2.380890

 Minimum search - taking simple RFO step
 Searching for Lamda that Minimizes Along All modes
 Value Taken    Lamda =  -0.00368839
 Step Taken.  Stepsize is  0.065412

                             Maximum     Tolerance    Cnvgd?
         Gradient           0.032180      0.000300      NO
         Displacement       0.028213      0.001200      NO
         Energy change      0.003630      0.000001      NO


 New Cartesian Coordinates Obtained by Inverse Iteration

 Displacement from previous Coordinates is:  0.075196
 ----------------------------------------------------------------
             Standard Nuclear Orientation (Angstroms)
    I     Atom           X                Y                Z
 ----------------------------------------------------------------
    1      C       2.1851307206    -0.6987017468    -0.0000441792
    2      C       2.1535756553     0.7250656337     0.0000149748
    3      C       0.9247084916     1.4576535702     0.0000731645
    4      C      -0.2539850096     0.6755903433     0.0000714526
    5      C      -0.2523151150    -0.7749960648     0.0000114531
    6      C       0.9860484772    -1.4787907070    -0.0000450225
    7      N      -1.5809887438     1.0762760857     0.0001170107
    8      C      -1.6221470347    -1.1743412455     0.0000201884
    9      C      -2.4146363932    -0.0078096268     0.0000913099
   10      H      -1.8899530931     2.0385340751     0.0001729885
   11      H      -2.0079875179    -2.1873711279    -0.0000228041
   12      H      -3.4912563635     0.1094859704     0.0001184491
   13      H       3.0930848797     1.2737360128     0.0000131153
   14      H       0.9060326263     2.5443338817     0.0001117852
   15      H       3.1498601671    -1.2010071169    -0.0000896438
   16      H       1.0179232043    -2.5651054447    -0.0000882615
 ----------------------------------------------------------------
 Molecular Point Group                 C1    NOp =  1
 Largest Abelian Subgroup              C1    NOp =  1
 Nuclear Repulsion Energy =         395.67317443 hartrees
 There are       31 alpha and       31 beta electrons


 *******************************************
 **  MAXIMUM OPTIMIZATION CYCLES REACHED  **
 *******************************************

 Q-Chem fatal error occurred in module 0, line  455:

 Maximum optimization cycles reached

