
Running Job 1 of 1 QfuncsSOGGA11-X-V-3rd.in
qchem QfuncsSOGGA11-X-V-3rd.in_76849.0 /scratch/scaparas/job_3624059/qchem76849/ 0
/cm/shared/apps/spack/cpu/opt/spack/linux-centos8-zen2/gcc-10.2.0/qchem-5.3-5qddma6gy34jvefiv7mbcb7qm253n45r/exe/qcprog.exe_s QfuncsSOGGA11-X-V-3rd.in_76849.0 /scratch/scaparas/job_3624059/qchem76849/
                  Welcome to Q-Chem
     A Quantum Leap Into The Future Of Chemistry


 Q-Chem 5.3, Q-Chem, Inc., Pleasanton, CA (2020)

 License issued to: University of California, San Diego (site)

 Yihan Shao,  Zhengting Gan,  E. Epifanovsky,  A. T. B. Gilbert,  M. Wormit,  
 J. Kussmann,  A. W. Lange,  A. Behn,  Jia Deng,  Xintian Feng,  D. Ghosh,  
 M. Goldey,  P. R. Horn,  L. D. Jacobson,  I. Kaliman,  T. Kus,  A. Landau,  
 Jie Liu,  E. I. Proynov,  R. M. Richard,  R. P. Steele,  E. J. Sundstrom,  
 H. L. Woodcock III,  P. M. Zimmerman,  D. Zuev,  B. Alam,  B. Albrecht,  
 A. Aldossary,  E. Alguire,  S. A. Baeppler,  D. Barton,  Z. Benda,  
 Y. A. Bernard,  E. J. Berquist,  K. B. Bravaya,  H. Burton,  K. Carter-Fenk,  
 D. Casanova,  Chun-Min Chang,  Yunqing Chen,  A. Chien,  K. D. Closser,  
 M. P. Coons,  S. Coriani,  S. Dasgupta,  A. L. Dempwolff,  M. Diedenhofen,  
 Hainam Do,  R. G. Edgar,  Po-Tung Fang,  S. Faraji,  S. Fatehi,  
 Qingguo Feng,  J. Fosso-Tande,  J. Gayvert,  Qinghui Ge,  A. Ghysels,  
 G. Gidofalvi,  J. Gomes,  J. Gonthier,  S. Gulania,  A. Gunina,  D. Hait,  
 M. W. D. Hanson-Heine,  S. Hammes-Schiffer,  P. H. P. Harbach,  
 A. W. Hauser,  M. F. Herbst,  J. E. Herr,  E. G. Hohenstein,  Z. C. Holden,  
 S. Houck,  Kerwin Hui,  B. C. Huynh,  M. Ivanov,  T.-C. Jagau,  Hyunjun Ji,  
 B. Kaduk,  K. Khistyaev,  Jaehoon Kim,  P. Klunzinger,  K. Koh,  
 D. Kosenkov,  L. Koulias,  T. Kowalczyk,  C. M. Krauter,  A. Kunitsa,  
 Ka Un Lao,  A. Laurent,  K. V. Lawler,  Joonho Lee,  D. Lefrancois,  
 S. Lehtola,  D. S. Levine,  Yi-Pei Li,  You-Sheng Lin,  Fenglai Liu,  
 Kuan-Yu Liu,  E. Livshits,  M. Loipersberger,  A. Luenser,  P. Manohar,  
 E. Mansoor,  S. F. Manzer,  Shan-Ping Mao,  Yuezhi Mao,  N. Mardirossian,  
 A. V. Marenich,  T. Markovich,  L. A. Martinez-Martinez,  S. A. Maurer,  
 N. J. Mayhall,  S. C. McKenzie,  J.-M. Mewes,  P. Morgante,  A. F. Morrison,  
 J. W. Mullinax,  K. Nanda,  T. S. Nguyen-Beck,  R. Olivares-Amaya,  
 K. J. Oosterbaan,  J. A. Parkhill,  S. K. Paul,  F. Pavosevic,  Zheng Pei,  
 T. M. Perrine,  F. Plasser,  P. Pokhilko,  S. Prager,  A. Prociuk,  
 E. Ramos,  B. Rana,  D. R. Rehn,  F. Rob,  E. Rossomme,  M. Scheurer,  
 M. Schneider,  N. Sergueev,  S. M. Sharada,  S. Sharma,  W. Skomorowski,  
 D. W. Small,  T. Stauch,  C. J. Stein,  T. Stein,  Yu-Chuan Su,  
 S. P. Veccham,  Zhen Tao,  A. J. W. Thom,  A. Tkatchenko,  T. Tsuchimochi,  
 N. M. Tubman,  L. Vogt,  M. L. Vidal,  O. Vydrov,  M. A. Watson,  J. Wenzel,  
 M. de Wergifosse,  T. A. Wesolowski,  A. White,  J. Witte,  A. Yamada,  
 Jun Yang,  K. Yao,  S. Yeganeh,  S. R. Yost,  Zhi-Qiang You,  A. Zech,  
 Igor Ying Zhang,  Xing Zhang,  Yan Zhao,  Ying Zhu,  B. R. Brooks,  
 G. K. L. Chan,  C. J. Cramer,  M. S. Gordon,  W. J. Hehre,  A. Klamt,  
 M. W. Schmidt,  C. D. Sherrill,  D. G. Truhlar,  A. Aspuru-Guzik,  R. Baer,  
 A. T. Bell,  N. A. Besley,  Jeng-Da Chai,  A. E. DePrince, III,  
 R. A. DiStasio Jr.,  A. Dreuw,  B. D. Dunietz,  T. R. Furlani,  
 Chao-Ping Hsu,  Yousung Jung,  Jing Kong,  D. S. Lambrecht,  WanZhen Liang,  
 C. Ochsenfeld,  V. A. Rassolov,  L. V. Slipchenko,  J. E. Subotnik,  
 T. Van Voorhis,  J. M. Herbert,  A. I. Krylov,  P. M. W. Gill,  M. Head-Gordon

 Contributors to earlier versions of Q-Chem not listed above: 
 R. D. Adamson,  B. Austin,  J. Baker,  G. J. O. Beran,  K. Brandhorst,  
 S. T. Brown,  E. F. C. Byrd,  A. K. Chakraborty,  C.-L. Cheng,  
 Siu Hung Chien,  D. M. Chipman,  D. L. Crittenden,  H. Dachsel,  
 R. J. Doerksen,  A. D. Dutoi,  L. Fusti-Molnar,  W. A. Goddard III,  
 A. Golubeva-Zadorozhnaya,  S. R. Gwaltney,  G. Hawkins,  A. Heyden,  
 S. Hirata,  G. Kedziora,  F. J. Keil,  C. Kelley,  Jihan Kim,  R. A. King,  
 R. Z. Khaliullin,  P. P. Korambath,  W. Kurlancheek,  A. M. Lee,  M. S. Lee,  
 S. V. Levchenko,  Ching Yeh Lin,  D. Liotard,  R. C. Lochan,  I. Lotan,  
 P. E. Maslen,  N. Nair,  D. P. O'Neill,  D. Neuhauser,  E. Neuscamman,  
 C. M. Oana,  R. Olson,  B. Peters,  R. Peverati,  P. A. Pieniazek,  
 Y. M. Rhee,  J. Ritchie,  M. A. Rohrdanz,  E. Rosta,  N. J. Russ,  
 H. F. Schaefer III,  N. E. Schultz,  N. Shenvi,  A. C. Simmonett,  A. Sodt,  
 D. Stuck,  K. S. Thanthiriwatte,  V. Vanovschi,  Tao Wang,  A. Warshel,  
 C. F. Williams,  Q. Wu,  X. Xu,  W. Zhang

 Please cite Q-Chem as follows:
 Y. Shao et al., Mol. Phys. 113, 184-215 (2015)
 DOI: 10.1080/00268976.2014.952696

 Q-Chem 5.3.1 for Intel X86 EM64T Linux

 Parts of Q-Chem use Armadillo 9.800.1 (Horizon Scraper).
 http://arma.sourceforge.net/

 Q-Chem begins on Fri Jun 25 07:31:19 2021  

Host: 
0

     Scratch files written to /scratch/scaparas/job_3624059/qchem76849//
 Aug2920 |scratch|qcdevops|jenkins|workspace|build_RNUM    
Processing $rem in /cm/shared/apps/spack/cpu/opt/spack/linux-centos8-zen2/gcc-10.2.0/qchem-5.3-5qddma6gy34jvefiv7mbcb7qm253n45r/config/preferences:
Processing $rem in /home/scaparas/.qchemrc:


!!********************************************.
!!******************Warning*******************.
!!Desired Analytical derivatives not available.
!!Finite difference job might take a long time.
!!********************************************.
!!********************************************.


 1-order derivative to be evaluated numerically with energy values

Checking the input file for inconsistencies... 	...done.

--------------------------------------------------------------
User input:
--------------------------------------------------------------
$molecule
0 1
C   -2.1510630    0.6892080    0.0000880
C   -2.1279270   -0.7158180    0.0000750
C   -0.9322970   -1.4131000   -0.0000110
C    0.2469110   -0.6702010   -0.0000420
C    0.2481930    0.7482990    0.0000000
C   -0.9794740    1.4235260    0.0000320
N    1.5617740   -1.0775920   -0.0002850
C    1.6201330    1.1629000   -0.0001570
C    2.3820130    0.0308060    0.0002480
H    1.8763150   -2.0300110    0.0004380
H    1.9921730    2.1730100   -0.0003480
H    3.4525490   -0.0824250    0.0004080
H   -3.0615940   -1.2620200    0.0000880
H   -0.9172520   -2.4953420   -0.0000730
H   -3.1042030    1.2007850    0.0000900
H   -1.0093480    2.5054210   -0.0000150
$end

$rem
BASIS  =  6-31+G*
GUI  =  2
JOB_TYPE  =  Optimization
METHOD  = SOGGA11-X
SCF_CONVERGENCE  =  8
THRESH = 12
CIS_N_ROOTS  = 3
CIS_SINGLETS = true
CIS_TRIPLETS = false
CIS_STATE_DERIV = 3
MEM_STATIC = 500
MEM_TOTAL = 3000
$end
--------------------------------------------------------------
 ----------------------------------------------------------------
             Standard Nuclear Orientation (Angstroms)
    I     Atom           X                Y                Z
 ----------------------------------------------------------------
    1      C       2.1510629040    -0.6892079969     0.0000583065
    2      C       2.1279268385     0.7158180020     0.0000481775
    3      C       0.9322968051     1.4130999466    -0.0000206639
    4      C      -0.2469111607     0.6702008918    -0.0000373513
    5      C      -0.2481930942    -0.7482991083     0.0000020775
    6      C       0.9794739374    -1.4235260513     0.0000165335
    7      N      -1.5617741827     1.0775918311    -0.0002621374
    8      C      -1.6201330769    -1.1629001718    -0.0001374500
    9      C      -2.3820131241    -0.0308062080     0.0002797387
   10      H      -1.8763152174     2.0300108152     0.0004667797
   11      H      -1.9921730325    -2.1730101887    -0.0003253498
   12      H      -3.4525491271     0.0824247420     0.0004541695
   13      H       3.0615938132     1.2620200454     0.0000497686
   14      H       0.9172517540     2.4953419460    -0.0000804893
   15      H       3.1042029277    -1.2007849526     0.0000467087
   16      H       1.0093479871    -2.5054210498    -0.0000328375
 ----------------------------------------------------------------
 Molecular Point Group                 C1    NOp =  1
 Largest Abelian Subgroup              C1    NOp =  1
 Nuclear Repulsion Energy =         401.33686680 hartrees
 There are       31 alpha and       31 beta electrons
 Requested basis set is 6-31+G(d)
 There are 59 shells and 185 basis functions

 Total QAlloc Memory Limit   3000 MB
 Mega-Array Size       489 MB
 MEM_STATIC part       500 MB
 A cutoff of  1.0D-12 yielded   1657 shell pairs
 There are     17105 function pairs
 Smallest overlap matrix eigenvalue = 1.26E-06

 Scale SEOQF with 1.000000e-01/1.000000e-01/1.000000e-01

 Standard Electronic Orientation quadrupole field applied
 Nucleus-field energy     =     0.0000000117 hartrees
 Finite diff step size:  1.88973e-03 a.u.
 ----------------------------------------------------------------
             Standard Nuclear Orientation (Angstroms)
    I     Atom           X                Y                Z
 ----------------------------------------------------------------
    1      C       2.1520629040    -0.6892079969     0.0000583065
    2      C       2.1279268385     0.7158180020     0.0000481775
    3      C       0.9322968051     1.4130999466    -0.0000206639
    4      C      -0.2469111607     0.6702008918    -0.0000373513
    5      C      -0.2481930942    -0.7482991083     0.0000020775
    6      C       0.9794739374    -1.4235260513     0.0000165335
    7      N      -1.5617741827     1.0775918311    -0.0002621374
    8      C      -1.6201330769    -1.1629001718    -0.0001374500
    9      C      -2.3820131241    -0.0308062080     0.0002797387
   10      H      -1.8763152174     2.0300108152     0.0004667797
   11      H      -1.9921730325    -2.1730101887    -0.0003253498
   12      H      -3.4525491271     0.0824247420     0.0004541695
   13      H       3.0615938132     1.2620200454     0.0000497686
   14      H       0.9172517540     2.4953419460    -0.0000804893
   15      H       3.1042029277    -1.2007849526     0.0000467087
   16      H       1.0093479871    -2.5054210498    -0.0000328375
 ----------------------------------------------------------------
 Nuclear Repulsion Energy =         401.31962099 hartrees
 There are       31 alpha and       31 beta electrons
 Applying Cartesian multipole field
    Component          Value
    ---------          -----
     (2,0,0)        1.00000E-11
     (0,2,0)        2.00000E-11
     (0,0,2)       -3.00000E-11
 Nucleus-field energy     =     0.0000000117 hartrees
 Requested basis set is 6-31+G(d)
 There are 59 shells and 185 basis functions
 A cutoff of  1.0D-12 yielded   1657 shell pairs
 There are     17105 function pairs
 Smallest overlap matrix eigenvalue = 1.26E-06
 Guess from superposition of atomic densities
 Warning:  Energy on first SCF cycle will be non-variational
 SAD guess density has 62.000000 electrons

 -----------------------------------------------------------------------
  General SCF calculation program by
  Eric Jon Sundstrom, Paul Horn, Yuezhi Mao, Dmitri Zuev, Alec White,
  David Stuck, Shaama M.S., Shane Yost, Joonho Lee, David Small,
  Daniel Levine, Susi Lehtola, Hugh Burton, Evgeny Epifanovsky,
  Bang C. Huynh
 -----------------------------------------------------------------------
 Exchange:     0.4015 Hartree-Fock + 1.0000 SOGGA11-X
 Correlation:  1.0000 SOGGA11-X
 Using SG-1 standard quadrature grid
 using 4 threads for integral computing
 -------------------------------------------------------
 OpenMP Integral computing Module                
 Release: version 1.0, May 2013, Q-Chem Inc. Pittsburgh 
 -------------------------------------------------------
 A restricted SCF calculation will be
 performed using DIIS
 SCF converges when DIIS error is below 1.0e-08
 ---------------------------------------
  Cycle       Energy         DIIS error
 ---------------------------------------
    1    -366.5927348171      5.58e-02  
    2    -363.6553985430      3.78e-03  
    3    -363.6655572524      3.70e-03  
    4    -363.7272528720      8.71e-04  
    5    -363.7301452958      3.36e-04  
    6    -363.7306264330      6.07e-05  
    7    -363.7306410073      2.36e-05  
    8    -363.7306435380      4.22e-06  
    9    -363.7306436069      1.86e-06  
   10    -363.7306436255      4.46e-07  
   11    -363.7306436265      2.44e-07  
   12    -363.7306436268      4.83e-08  
   13    -363.7306436268      2.34e-08  
   14    -363.7306436269      6.45e-09  Convergence criterion met
 ---------------------------------------
 SCF time:   CPU 40.10s  wall 14.00s 
 SCF   energy in the final basis set =     -363.7306436269
 Total energy in the final basis set =     -363.7306436269
 
 Direct TDDFT/TDA calculation will be performed
 Exchange:     0.4015 Hartree-Fock + 1.0000 SOGGA11-X
 Correlation:  1.0000 SOGGA11-X
 Using SG-1 standard quadrature grid
 Singlet excitation energies requested
 CIS energy converged when residual is below 10e- 6
 ---------------------------------------------------
 Iter    Rts Conv    Rts Left    Ttl Dev     Max Dev
 ---------------------------------------------------
   1         0           3      0.003518    0.001700
   2         0           3      0.001023    0.000529
   3         0           3      0.000419    0.000209
   4         0           3      0.000148    0.000077
   5         0           3      0.000050    0.000025
   6         0           3      0.000020    0.000009
   7         1           2      0.000007    0.000003
   8         2           1      0.000003    0.000001
   9         3           0      0.000002    0.000001    Roots Converged
 ---------------------------------------------------
 
 ---------------------------------------------------
         TDDFT/TDA Excitation Energies              
 ---------------------------------------------------

 Excited state   1: excitation energy (eV) =    5.1611
 Total energy for state  1:                  -363.54097675 au
    Multiplicity: Singlet
    Trans. Mom.:  0.0019 X  -0.0018 Y  -0.1380 Z
    Strength   :     0.0024105731
    D(   31) --> V(    2) amplitude =  0.9860

 Excited state   2: excitation energy (eV) =    5.2234
 Total energy for state  2:                  -363.53868580 au
    Multiplicity: Singlet
    Trans. Mom.: -0.0434 X   0.5653 Y  -0.0003 Z
    Strength   :     0.0411318253
    D(   30) --> V(    1) amplitude =  0.6953
    D(   31) --> V(    1) amplitude = -0.5003
    D(   31) --> V(    5) amplitude = -0.4304

 Excited state   3: excitation energy (eV) =    5.2523
 Total energy for state  3:                  -363.53762463 au
    Multiplicity: Singlet
    Trans. Mom.:  0.8749 X  -0.4151 Y   0.0001 Z
    Strength   :     0.1206756069
    D(   30) --> V(    1) amplitude =  0.3939
    D(   30) --> V(    5) amplitude =  0.2564
    D(   31) --> V(    1) amplitude =  0.7733
    D(   31) --> V(    5) amplitude = -0.3779
 
 Finite difference gradient evaluation for state   3
 Ground state energy  =    -363.7306436269
 Excited state energy =    -363.5376246265
 
 ---------------------------------------------------
  SETman timing summary (seconds)
  CPU time                52.26s
  System time              0.00s
  Wall time               17.90s
 
 --------------------------------------------------------------
 
                    Orbital Energies (a.u.)
 --------------------------------------------------------------
 
 Alpha MOs
 -- Occupied --
-14.7115 -10.4944 -10.4911 -10.4609 -10.4564 -10.4557 -10.4555 -10.4500
-10.4478  -1.0886  -0.9367  -0.8751  -0.8239  -0.8045  -0.6986  -0.6672
 -0.6525  -0.6044  -0.5436  -0.5306  -0.4926  -0.4847  -0.4782  -0.4652
 -0.4441  -0.4050  -0.3827  -0.3824  -0.3207  -0.2571  -0.2399
 -- Virtual --
  0.0042   0.0054   0.0254   0.0301   0.0424   0.0441   0.0459   0.0625
  0.0679   0.0719   0.0725   0.0765   0.0963   0.1021   0.1124   0.1141
  0.1241   0.1366   0.1490   0.1518   0.1649   0.1677   0.1776   0.1795
  0.1868   0.1980   0.2005   0.2019   0.2110   0.2178   0.2214   0.2311
  0.2346   0.2415   0.2482   0.2547   0.2558   0.2615   0.2715   0.2770
  0.2871   0.2897   0.3038   0.3171   0.3277   0.3388   0.3407   0.3549
  0.3758   0.3987   0.4093   0.4349   0.4804   0.4886   0.5575   0.6294
  0.6788   0.7210   0.7261   0.7505   0.7689   0.7721   0.7867   0.7888
  0.7990   0.8058   0.8169   0.8324   0.8468   0.8593   0.8709   0.9097
  0.9564   0.9697   0.9781   1.0004   1.0112   1.0172   1.0238   1.0457
  1.0656   1.0919   1.1077   1.1271   1.1441   1.1667   1.1706   1.2221
  1.2288   1.2531   1.2764   1.2777   1.3063   1.3657   1.3739   1.3858
  1.4186   1.4626   1.4695   1.5079   1.5096   1.5160   1.5478   1.5539
  1.5996   1.6464   1.7064   1.8431   1.9054   1.9471   1.9476   1.9859
  2.0052   2.0603   2.0633   2.0645   2.1289   2.1674   2.2088   2.2341
  2.2401   2.2658   2.3116   2.3229   2.3286   2.3508   2.3816   2.4461
  2.4740   2.5144   2.6187   2.6272   2.7075   2.7292   2.7393   2.7762
  2.8139   2.8866   2.9223   2.9379   3.0312   3.0559   3.1944   3.3287
  3.5319   4.2581   4.3738   4.4033   4.4383   4.4745   4.5097   4.5932
  4.6328   4.9022
 --------------------------------------------------------------
 
          Ground-State Mulliken Net Atomic Charges

     Atom                 Charge (a.u.)
  ----------------------------------------
      1 C                    -0.094174
      2 C                    -0.481608
      3 C                    -0.014445
      4 C                    -0.941695
      5 C                     1.023858
      6 C                    -0.594193
      7 N                    -0.547769
      8 C                     0.046460
      9 C                    -0.214238
     10 H                     0.450663
     11 H                     0.238009
     12 H                     0.234305
     13 H                     0.221044
     14 H                     0.225278
     15 H                     0.219746
     16 H                     0.228760
  ----------------------------------------
  Sum of atomic charges =     0.000000

 -----------------------------------------------------------------
                    Cartesian Multipole Moments
 -----------------------------------------------------------------
    Charge (ESU x 10^10)
                -0.0000
    Dipole Moment (Debye)
         X      -1.5100      Y       1.5425      Z       0.0011
       Tot       2.1586
    Quadrupole Moments (Debye-Ang)
        XX     -45.0421     XY      -3.1290     YY     -44.2712
        XZ      -0.0034     YZ       0.0034     ZZ     -59.3419
    Octopole Moments (Debye-Ang^2)
       XXX     -14.8816    XXY       8.1940    XYY      -7.8531
       YYY      10.3061    XXZ       0.0080    XYZ      -0.0069
       YYZ       0.0021    XZZ      -2.0319    YZZ       2.0177
       ZZZ      -0.0008
    Hexadecapole Moments (Debye-Ang^3)
      XXXX    -804.8071   XXXY     -21.4601   XXYY    -194.1818
      XYYY     -19.3192   YYYY    -363.6025   XXXZ      -0.0252
      XXYZ       0.0135   XYYZ      -0.0074   YYYZ       0.0148
      XXZZ    -189.5144   XYZZ      -3.9449   YYZZ     -93.5432
      XZZZ      -0.0014   YZZZ       0.0031   ZZZZ     -72.9080
 -----------------------------------------------------------------
 ----------------------------------------------------------------
             Standard Nuclear Orientation (Angstroms)
    I     Atom           X                Y                Z
 ----------------------------------------------------------------
    1      C       2.1500629040    -0.6892079969     0.0000583065
    2      C       2.1279268385     0.7158180020     0.0000481775
    3      C       0.9322968051     1.4130999466    -0.0000206639
    4      C      -0.2469111607     0.6702008918    -0.0000373513
    5      C      -0.2481930942    -0.7482991083     0.0000020775
    6      C       0.9794739374    -1.4235260513     0.0000165335
    7      N      -1.5617741827     1.0775918311    -0.0002621374
    8      C      -1.6201330769    -1.1629001718    -0.0001374500
    9      C      -2.3820131241    -0.0308062080     0.0002797387
   10      H      -1.8763152174     2.0300108152     0.0004667797
   11      H      -1.9921730325    -2.1730101887    -0.0003253498
   12      H      -3.4525491271     0.0824247420     0.0004541695
   13      H       3.0615938132     1.2620200454     0.0000497686
   14      H       0.9172517540     2.4953419460    -0.0000804893
   15      H       3.1042029277    -1.2007849526     0.0000467087
   16      H       1.0093479871    -2.5054210498    -0.0000328375
 ----------------------------------------------------------------
 Nuclear Repulsion Energy =         401.35412238 hartrees
 There are       31 alpha and       31 beta electrons
 Applying Cartesian multipole field
    Component          Value
    ---------          -----
     (2,0,0)        1.00000E-11
     (0,2,0)        2.00000E-11
     (0,0,2)       -3.00000E-11
 Nucleus-field energy     =     0.0000000117 hartrees
 Requested basis set is 6-31+G(d)
 There are 59 shells and 185 basis functions
 A cutoff of  1.0D-12 yielded   1657 shell pairs
 There are     17105 function pairs
 Smallest overlap matrix eigenvalue = 1.27E-06
 Guess MOs from SCF MO coefficient file

 -----------------------------------------------------------------------
  General SCF calculation program by
  Eric Jon Sundstrom, Paul Horn, Yuezhi Mao, Dmitri Zuev, Alec White,
  David Stuck, Shaama M.S., Shane Yost, Joonho Lee, David Small,
  Daniel Levine, Susi Lehtola, Hugh Burton, Evgeny Epifanovsky,
  Bang C. Huynh
 -----------------------------------------------------------------------
 Exchange:     0.4015 Hartree-Fock + 1.0000 SOGGA11-X
 Correlation:  1.0000 SOGGA11-X
 Using SG-1 standard quadrature grid
 using 4 threads for integral computing
 -------------------------------------------------------
 OpenMP Integral computing Module                
 Release: version 1.0, May 2013, Q-Chem Inc. Pittsburgh 
 -------------------------------------------------------
 A restricted SCF calculation will be
 performed using DIIS
 SCF converges when DIIS error is below 1.0e-08
 ---------------------------------------
  Cycle       Energy         DIIS error
 ---------------------------------------
    1    -363.7306310611      2.16e-05  
    2    -363.7306333145      5.57e-06  
    3    -363.7306333381      5.21e-06  
    4    -363.7306334575      1.04e-06  
    5    -363.7306334624      4.81e-07  
    6    -363.7306334636      1.15e-07  
    7    -363.7306334637      4.54e-08  
    8    -363.7306334637      1.75e-08  
    9    -363.7306334637      7.47e-09  Convergence criterion met
 ---------------------------------------
 SCF time:   CPU 26.52s  wall 9.00s 
 SCF   energy in the final basis set =     -363.7306334637
 Total energy in the final basis set =     -363.7306334637
 
 Direct TDDFT/TDA calculation will be performed
 Exchange:     0.4015 Hartree-Fock + 1.0000 SOGGA11-X
 Correlation:  1.0000 SOGGA11-X
 Using SG-1 standard quadrature grid
 Singlet excitation energies requested
 CIS energy converged when residual is below 10e- 6
 ---------------------------------------------------
 Iter    Rts Conv    Rts Left    Ttl Dev     Max Dev
 ---------------------------------------------------
   1         0           3      0.003518    0.001700
   2         0           3      0.001022    0.000528
   3         0           3      0.000419    0.000208
   4         0           3      0.000148    0.000077
   5         0           3      0.000050    0.000025
   6         0           3      0.000020    0.000009
   7         1           2      0.000007    0.000003
   8         2           1      0.000003    0.000001
   9         3           0      0.000002    0.000001    Roots Converged
 ---------------------------------------------------
 
 ---------------------------------------------------
         TDDFT/TDA Excitation Energies              
 ---------------------------------------------------

 Excited state   1: excitation energy (eV) =    5.1623
 Total energy for state  1:                  -363.54092255 au
    Multiplicity: Singlet
    Trans. Mom.:  0.0019 X  -0.0018 Y  -0.1385 Z
    Strength   :     0.0024275718
    D(   31) --> V(    2) amplitude =  0.9860

 Excited state   2: excitation energy (eV) =    5.2258
 Total energy for state  2:                  -363.53858774 au
    Multiplicity: Singlet
    Trans. Mom.: -0.0443 X   0.5641 Y  -0.0003 Z
    Strength   :     0.0409973794
    D(   30) --> V(    1) amplitude =  0.6974
    D(   31) --> V(    1) amplitude = -0.4978
    D(   31) --> V(    5) amplitude = -0.4303

 Excited state   3: excitation energy (eV) =    5.2547
 Total energy for state  3:                  -363.53752643 au
    Multiplicity: Singlet
    Trans. Mom.:  0.8816 X  -0.4130 Y   0.0001 Z
    Strength   :     0.1220069470
    D(   30) --> V(    1) amplitude =  0.3917
    D(   30) --> V(    5) amplitude =  0.2572
    D(   31) --> V(    1) amplitude =  0.7748
    D(   31) --> V(    5) amplitude = -0.3765
 
 Finite difference gradient evaluation for state   3
 Ground state energy  =    -363.7306334637
 Excited state energy =    -363.5375264271
 
 ---------------------------------------------------
  SETman timing summary (seconds)
  CPU time                52.30s
  System time              0.00s
  Wall time               17.87s
 
 --------------------------------------------------------------
 
                    Orbital Energies (a.u.)
 --------------------------------------------------------------
 
 Alpha MOs
 -- Occupied --
-14.7115 -10.4944 -10.4911 -10.4609 -10.4563 -10.4556 -10.4555 -10.4499
-10.4478  -1.0886  -0.9368  -0.8751  -0.8240  -0.8045  -0.6985  -0.6672
 -0.6524  -0.6045  -0.5435  -0.5304  -0.4927  -0.4848  -0.4782  -0.4651
 -0.4441  -0.4047  -0.3827  -0.3825  -0.3207  -0.2571  -0.2400
 -- Virtual --
  0.0043   0.0054   0.0254   0.0301   0.0426   0.0441   0.0459   0.0625
  0.0679   0.0719   0.0726   0.0764   0.0963   0.1021   0.1124   0.1140
  0.1241   0.1366   0.1490   0.1518   0.1649   0.1677   0.1776   0.1795
  0.1868   0.1980   0.2004   0.2018   0.2110   0.2178   0.2214   0.2312
  0.2346   0.2416   0.2482   0.2547   0.2559   0.2615   0.2716   0.2770
  0.2871   0.2897   0.3037   0.3171   0.3277   0.3387   0.3407   0.3550
  0.3758   0.3989   0.4093   0.4349   0.4805   0.4886   0.5575   0.6296
  0.6793   0.7209   0.7260   0.7505   0.7688   0.7721   0.7870   0.7888
  0.7992   0.8058   0.8170   0.8324   0.8469   0.8594   0.8709   0.9097
  0.9564   0.9696   0.9781   1.0004   1.0107   1.0171   1.0239   1.0457
  1.0656   1.0918   1.1075   1.1271   1.1441   1.1669   1.1706   1.2222
  1.2290   1.2531   1.2765   1.2777   1.3064   1.3657   1.3739   1.3858
  1.4188   1.4626   1.4695   1.5078   1.5096   1.5161   1.5481   1.5539
  1.5996   1.6466   1.7063   1.8433   1.9056   1.9470   1.9479   1.9859
  2.0052   2.0601   2.0635   2.0640   2.1289   2.1678   2.2092   2.2343
  2.2410   2.2657   2.3118   2.3231   2.3291   2.3509   2.3818   2.4464
  2.4741   2.5147   2.6186   2.6273   2.7074   2.7295   2.7398   2.7773
  2.8137   2.8870   2.9223   2.9383   3.0313   3.0562   3.1945   3.3289
  3.5325   4.2581   4.3740   4.4035   4.4383   4.4744   4.5098   4.5933
  4.6329   4.9024
 --------------------------------------------------------------
 
          Ground-State Mulliken Net Atomic Charges

     Atom                 Charge (a.u.)
  ----------------------------------------
      1 C                    -0.091078
      2 C                    -0.483216
      3 C                    -0.014601
      4 C                    -0.941545
      5 C                     1.025594
      6 C                    -0.596454
      7 N                    -0.547776
      8 C                     0.045490
      9 C                    -0.214230
     10 H                     0.450656
     11 H                     0.237990
     12 H                     0.234290
     13 H                     0.221215
     14 H                     0.225232
     15 H                     0.219510
     16 H                     0.228922
  ----------------------------------------
  Sum of atomic charges =     0.000000

 -----------------------------------------------------------------
                    Cartesian Multipole Moments
 -----------------------------------------------------------------
    Charge (ESU x 10^10)
                -0.0000
    Dipole Moment (Debye)
         X      -1.5094      Y       1.5433      Z       0.0011
       Tot       2.1588
    Quadrupole Moments (Debye-Ang)
        XX     -45.0498     XY      -3.1209     YY     -44.2693
        XZ      -0.0034     YZ       0.0034     ZZ     -59.3385
    Octopole Moments (Debye-Ang^2)
       XXX     -14.8707    XXY       8.2262    XYY      -7.8452
       YYY      10.3010    XXZ       0.0080    XYZ      -0.0069
       YYZ       0.0021    XZZ      -2.0158    YZZ       2.0141
       ZZZ      -0.0008
    Hexadecapole Moments (Debye-Ang^3)
      XXXX    -804.7022   XXXY     -21.3542   XXYY    -194.1631
      XYYY     -19.3141   YYYY    -363.5816   XXXZ      -0.0252
      XXYZ       0.0135   XYYZ      -0.0074   YYYZ       0.0148
      XXZZ    -189.4684   XYZZ      -3.9533   YYZZ     -93.5344
      XZZZ      -0.0014   YZZZ       0.0031   ZZZZ     -72.8936
 -----------------------------------------------------------------
 ----------------------------------------------------------------
             Standard Nuclear Orientation (Angstroms)
    I     Atom           X                Y                Z
 ----------------------------------------------------------------
    1      C       2.1510629040    -0.6882079969     0.0000583065
    2      C       2.1279268385     0.7158180020     0.0000481775
    3      C       0.9322968051     1.4130999466    -0.0000206639
    4      C      -0.2469111607     0.6702008918    -0.0000373513
    5      C      -0.2481930942    -0.7482991083     0.0000020775
    6      C       0.9794739374    -1.4235260513     0.0000165335
    7      N      -1.5617741827     1.0775918311    -0.0002621374
    8      C      -1.6201330769    -1.1629001718    -0.0001374500
    9      C      -2.3820131241    -0.0308062080     0.0002797387
   10      H      -1.8763152174     2.0300108152     0.0004667797
   11      H      -1.9921730325    -2.1730101887    -0.0003253498
   12      H      -3.4525491271     0.0824247420     0.0004541695
   13      H       3.0615938132     1.2620200454     0.0000497686
   14      H       0.9172517540     2.4953419460    -0.0000804893
   15      H       3.1042029277    -1.2007849526     0.0000467087
   16      H       1.0093479871    -2.5054210498    -0.0000328375
 ----------------------------------------------------------------
 Nuclear Repulsion Energy =         401.34474495 hartrees
 There are       31 alpha and       31 beta electrons
 Applying Cartesian multipole field
    Component          Value
    ---------          -----
     (2,0,0)        1.00000E-11
     (0,2,0)        2.00000E-11
     (0,0,2)       -3.00000E-11
 Nucleus-field energy     =     0.0000000117 hartrees
 Requested basis set is 6-31+G(d)
 There are 59 shells and 185 basis functions
 A cutoff of  1.0D-12 yielded   1657 shell pairs
 There are     17105 function pairs
 Smallest overlap matrix eigenvalue = 1.26E-06
 Guess MOs from SCF MO coefficient file

 -----------------------------------------------------------------------
  General SCF calculation program by
  Eric Jon Sundstrom, Paul Horn, Yuezhi Mao, Dmitri Zuev, Alec White,
  David Stuck, Shaama M.S., Shane Yost, Joonho Lee, David Small,
  Daniel Levine, Susi Lehtola, Hugh Burton, Evgeny Epifanovsky,
  Bang C. Huynh
 -----------------------------------------------------------------------
 Exchange:     0.4015 Hartree-Fock + 1.0000 SOGGA11-X
 Correlation:  1.0000 SOGGA11-X
 Using SG-1 standard quadrature grid
 using 4 threads for integral computing
 -------------------------------------------------------
 OpenMP Integral computing Module                
 Release: version 1.0, May 2013, Q-Chem Inc. Pittsburgh 
 -------------------------------------------------------
 A restricted SCF calculation will be
 performed using DIIS
 SCF converges when DIIS error is below 1.0e-08
 ---------------------------------------
  Cycle       Energy         DIIS error
 ---------------------------------------
    1    -363.7306345979      1.66e-05  
    2    -363.7306359848      5.98e-06  
    3    -363.7306360285      5.27e-06  
    4    -363.7306361579      9.54e-07  
    5    -363.7306361626      4.38e-07  
    6    -363.7306361639      1.19e-07  
    7    -363.7306361641      5.69e-08  
    8    -363.7306361641      1.89e-08  
    9    -363.7306361641      6.64e-09  Convergence criterion met
 ---------------------------------------
 SCF time:   CPU 26.70s  wall 9.00s 
 SCF   energy in the final basis set =     -363.7306361641
 Total energy in the final basis set =     -363.7306361641
 
 Direct TDDFT/TDA calculation will be performed
 Exchange:     0.4015 Hartree-Fock + 1.0000 SOGGA11-X
 Correlation:  1.0000 SOGGA11-X
 Using SG-1 standard quadrature grid
 Singlet excitation energies requested
 CIS energy converged when residual is below 10e- 6
 ---------------------------------------------------
 Iter    Rts Conv    Rts Left    Ttl Dev     Max Dev
 ---------------------------------------------------
   1         0           3      0.003519    0.001701
   2         0           3      0.001022    0.000528
   3         0           3      0.000419    0.000211
   4         0           3      0.000148    0.000077
   5         0           3      0.000050    0.000025
   6         0           3      0.000020    0.000009
   7         1           2      0.000007    0.000003
   8         2           1      0.000003    0.000001
   9         3           0      0.000002    0.000001    Roots Converged
 ---------------------------------------------------
 
 ---------------------------------------------------
         TDDFT/TDA Excitation Energies              
 ---------------------------------------------------

 Excited state   1: excitation energy (eV) =    5.1610
 Total energy for state  1:                  -363.54097232 au
    Multiplicity: Singlet
    Trans. Mom.:  0.0019 X  -0.0018 Y  -0.1378 Z
    Strength   :     0.0024034191
    D(   31) --> V(    2) amplitude =  0.9860

 Excited state   2: excitation energy (eV) =    5.2237
 Total energy for state  2:                  -363.53866791 au
    Multiplicity: Singlet
    Trans. Mom.: -0.0699 X   0.5795 Y  -0.0003 Z
    Strength   :     0.0435996479
    D(   30) --> V(    1) amplitude =  0.6824
    D(   31) --> V(    1) amplitude = -0.5251
    D(   31) --> V(    5) amplitude = -0.4175

 Excited state   3: excitation energy (eV) =    5.2528
 Total energy for state  3:                  -363.53759886 au
    Multiplicity: Singlet
    Trans. Mom.:  0.8745 X  -0.3979 Y   0.0001 Z
    Strength   :     0.1187888115
    D(   30) --> V(    1) amplitude =  0.4165
    D(   30) --> V(    5) amplitude =  0.2501
    D(   31) --> V(    1) amplitude =  0.7570
    D(   31) --> V(    5) amplitude = -0.3913
 
 Finite difference gradient evaluation for state   3
 Ground state energy  =    -363.7306361641
 Excited state energy =    -363.5375988582
 
 ---------------------------------------------------
  SETman timing summary (seconds)
  CPU time                52.34s
  System time              0.00s
  Wall time               13.17s
 
 --------------------------------------------------------------
 
                    Orbital Energies (a.u.)
 --------------------------------------------------------------
 
 Alpha MOs
 -- Occupied --
-14.7115 -10.4944 -10.4911 -10.4609 -10.4564 -10.4557 -10.4555 -10.4499
-10.4478  -1.0886  -0.9368  -0.8751  -0.8239  -0.8045  -0.6986  -0.6672
 -0.6524  -0.6045  -0.5435  -0.5305  -0.4927  -0.4847  -0.4782  -0.4652
 -0.4441  -0.4047  -0.3828  -0.3825  -0.3207  -0.2571  -0.2399
 -- Virtual --
  0.0042   0.0054   0.0254   0.0301   0.0426   0.0441   0.0459   0.0625
  0.0679   0.0719   0.0726   0.0764   0.0963   0.1021   0.1124   0.1140
  0.1241   0.1366   0.1490   0.1518   0.1649   0.1677   0.1776   0.1795
  0.1868   0.1980   0.2005   0.2018   0.2110   0.2178   0.2214   0.2312
  0.2346   0.2415   0.2482   0.2547   0.2558   0.2615   0.2715   0.2770
  0.2871   0.2897   0.3037   0.3171   0.3278   0.3388   0.3407   0.3550
  0.3758   0.3987   0.4093   0.4349   0.4804   0.4887   0.5576   0.6296
  0.6791   0.7209   0.7260   0.7505   0.7689   0.7721   0.7869   0.7888
  0.7990   0.8058   0.8170   0.8324   0.8469   0.8593   0.8709   0.9097
  0.9564   0.9696   0.9781   1.0004   1.0108   1.0172   1.0238   1.0456
  1.0657   1.0918   1.1075   1.1271   1.1441   1.1668   1.1707   1.2222
  1.2289   1.2532   1.2764   1.2777   1.3064   1.3657   1.3739   1.3858
  1.4188   1.4626   1.4694   1.5079   1.5096   1.5160   1.5481   1.5538
  1.5996   1.6466   1.7063   1.8432   1.9055   1.9472   1.9477   1.9859
  2.0053   2.0603   2.0634   2.0642   2.1289   2.1675   2.2093   2.2343
  2.2404   2.2657   2.3118   2.3234   2.3284   2.3509   2.3818   2.4465
  2.4740   2.5146   2.6186   2.6273   2.7075   2.7293   2.7396   2.7768
  2.8138   2.8868   2.9223   2.9383   3.0312   3.0563   3.1944   3.3288
  3.5324   4.2581   4.3741   4.4032   4.4383   4.4745   4.5097   4.5933
  4.6329   4.9023
 --------------------------------------------------------------
 
          Ground-State Mulliken Net Atomic Charges

     Atom                 Charge (a.u.)
  ----------------------------------------
      1 C                    -0.092269
      2 C                    -0.482703
      3 C                    -0.014290
      4 C                    -0.942318
      5 C                     1.025274
      6 C                    -0.595334
      7 N                    -0.547792
      8 C                     0.045682
      9 C                    -0.214078
     10 H                     0.450658
     11 H                     0.237996
     12 H                     0.234300
     13 H                     0.221175
     14 H                     0.225251
     15 H                     0.219567
     16 H                     0.228881
  ----------------------------------------
  Sum of atomic charges =     0.000000

 -----------------------------------------------------------------
                    Cartesian Multipole Moments
 -----------------------------------------------------------------
    Charge (ESU x 10^10)
                -0.0000
    Dipole Moment (Debye)
         X      -1.5106      Y       1.5426      Z       0.0011
       Tot       2.1591
    Quadrupole Moments (Debye-Ang)
        XX     -45.0485     XY      -3.1236     YY     -44.2695
        XZ      -0.0034     YZ       0.0034     ZZ     -59.3396
    Octopole Moments (Debye-Ang^2)
       XXX     -14.8983    XXY       8.2128    XYY      -7.8460
       YYY      10.2825    XXZ       0.0080    XYZ      -0.0069
       YYZ       0.0021    XZZ      -2.0226    YZZ       2.0127
       ZZZ      -0.0008
    Hexadecapole Moments (Debye-Ang^3)
      XXXX    -804.8168   XXXY     -21.4130   XXYY    -194.1660
      XYYY     -19.3489   YYYY    -363.5373   XXXZ      -0.0252
      XXYZ       0.0135   XYYZ      -0.0074   YYYZ       0.0148
      XXZZ    -189.4855   XYZZ      -3.9559   YYZZ     -93.5333
      XZZZ      -0.0014   YZZZ       0.0031   ZZZZ     -72.8981
 -----------------------------------------------------------------
 ----------------------------------------------------------------
             Standard Nuclear Orientation (Angstroms)
    I     Atom           X                Y                Z
 ----------------------------------------------------------------
    1      C       2.1510629040    -0.6902079969     0.0000583065
    2      C       2.1279268385     0.7158180020     0.0000481775
    3      C       0.9322968051     1.4130999466    -0.0000206639
    4      C      -0.2469111607     0.6702008918    -0.0000373513
    5      C      -0.2481930942    -0.7482991083     0.0000020775
    6      C       0.9794739374    -1.4235260513     0.0000165335
    7      N      -1.5617741827     1.0775918311    -0.0002621374
    8      C      -1.6201330769    -1.1629001718    -0.0001374500
    9      C      -2.3820131241    -0.0308062080     0.0002797387
   10      H      -1.8763152174     2.0300108152     0.0004667797
   11      H      -1.9921730325    -2.1730101887    -0.0003253498
   12      H      -3.4525491271     0.0824247420     0.0004541695
   13      H       3.0615938132     1.2620200454     0.0000497686
   14      H       0.9172517540     2.4953419460    -0.0000804893
   15      H       3.1042029277    -1.2007849526     0.0000467087
   16      H       1.0093479871    -2.5054210498    -0.0000328375
 ----------------------------------------------------------------
 Nuclear Repulsion Energy =         401.32900074 hartrees
 There are       31 alpha and       31 beta electrons
 Applying Cartesian multipole field
    Component          Value
    ---------          -----
     (2,0,0)        1.00000E-11
     (0,2,0)        2.00000E-11
     (0,0,2)       -3.00000E-11
 Nucleus-field energy     =     0.0000000117 hartrees
 Requested basis set is 6-31+G(d)
 There are 59 shells and 185 basis functions
 A cutoff of  1.0D-12 yielded   1657 shell pairs
 There are     17105 function pairs
 Smallest overlap matrix eigenvalue = 1.26E-06
 Guess MOs from SCF MO coefficient file

 -----------------------------------------------------------------------
  General SCF calculation program by
  Eric Jon Sundstrom, Paul Horn, Yuezhi Mao, Dmitri Zuev, Alec White,
  David Stuck, Shaama M.S., Shane Yost, Joonho Lee, David Small,
  Daniel Levine, Susi Lehtola, Hugh Burton, Evgeny Epifanovsky,
  Bang C. Huynh
 -----------------------------------------------------------------------
 Exchange:     0.4015 Hartree-Fock + 1.0000 SOGGA11-X
 Correlation:  1.0000 SOGGA11-X
 Using SG-1 standard quadrature grid
 using 4 threads for integral computing
 -------------------------------------------------------
 OpenMP Integral computing Module                
 Release: version 1.0, May 2013, Q-Chem Inc. Pittsburgh 
 -------------------------------------------------------
 A restricted SCF calculation will be
 performed using DIIS
 SCF converges when DIIS error is below 1.0e-08
 ---------------------------------------
  Cycle       Energy         DIIS error
 ---------------------------------------
    1    -363.7306382230      2.31e-05  
    2    -363.7306408753      7.94e-06  
    3    -363.7306409330      7.31e-06  
    4    -363.7306411824      1.26e-06  
    5    -363.7306411908      5.73e-07  
    6    -363.7306411930      1.41e-07  
    7    -363.7306411932      7.27e-08  
    8    -363.7306411932      2.52e-08  
    9    -363.7306411932      7.66e-09  Convergence criterion met
 ---------------------------------------
 SCF time:   CPU 25.40s  wall 6.00s 
 SCF   energy in the final basis set =     -363.7306411932
 Total energy in the final basis set =     -363.7306411932
 
 Direct TDDFT/TDA calculation will be performed
 Exchange:     0.4015 Hartree-Fock + 1.0000 SOGGA11-X
 Correlation:  1.0000 SOGGA11-X
 Using SG-1 standard quadrature grid
 Singlet excitation energies requested
 CIS energy converged when residual is below 10e- 6
 ---------------------------------------------------
 Iter    Rts Conv    Rts Left    Ttl Dev     Max Dev
 ---------------------------------------------------
   1         0           3      0.003517    0.001699
   2         0           3      0.001023    0.000528
   3         0           3      0.000420    0.000206
   4         0           3      0.000149    0.000076
   5         0           3      0.000051    0.000025
   6         0           3      0.000020    0.000009
   7         1           2      0.000007    0.000003
   8         2           1      0.000003    0.000001
   9         3           0      0.000002    0.000001    Roots Converged
 ---------------------------------------------------
 
 ---------------------------------------------------
         TDDFT/TDA Excitation Energies              
 ---------------------------------------------------

 Excited state   1: excitation energy (eV) =    5.1624
 Total energy for state  1:                  -363.54092754 au
    Multiplicity: Singlet
    Trans. Mom.:  0.0019 X  -0.0017 Y  -0.1387 Z
    Strength   :     0.0024347985
    D(   31) --> V(    2) amplitude =  0.9860

 Excited state   2: excitation energy (eV) =    5.2255
 Total energy for state  2:                  -363.53860802 au
    Multiplicity: Singlet
    Trans. Mom.: -0.0175 X   0.5494 Y  -0.0003 Z
    Strength   :     0.0386823380
    D(   30) --> V(    1) amplitude =  0.7096
    D(   31) --> V(    1) amplitude = -0.4723
    D(   31) --> V(    5) amplitude = -0.4428

 Excited state   3: excitation energy (eV) =    5.2543
 Total energy for state  3:                  -363.53755024 au
    Multiplicity: Singlet
    Trans. Mom.:  0.8812 X  -0.4298 Y   0.0001 Z
    Strength   :     0.1237410207
    D(   30) --> V(    1) amplitude =  0.3686
    D(   30) --> V(    5) amplitude =  0.2632
    D(   31) --> V(    1) amplitude =  0.7904
    D(   31) --> V(    5) amplitude = -0.3627
 
 Finite difference gradient evaluation for state   3
 Ground state energy  =    -363.7306411932
 Excited state energy =    -363.5375502372
 
 ---------------------------------------------------
  SETman timing summary (seconds)
  CPU time                52.43s
  System time              0.00s
  Wall time               14.42s
 
 --------------------------------------------------------------
 
                    Orbital Energies (a.u.)
 --------------------------------------------------------------
 
 Alpha MOs
 -- Occupied --
-14.7115 -10.4944 -10.4911 -10.4609 -10.4563 -10.4557 -10.4556 -10.4500
-10.4478  -1.0886  -0.9367  -0.8751  -0.8240  -0.8045  -0.6985  -0.6672
 -0.6525  -0.6044  -0.5436  -0.5305  -0.4927  -0.4848  -0.4782  -0.4651
 -0.4440  -0.4050  -0.3826  -0.3825  -0.3207  -0.2571  -0.2400
 -- Virtual --
  0.0043   0.0054   0.0254   0.0301   0.0425   0.0441   0.0459   0.0625
  0.0679   0.0719   0.0725   0.0765   0.0963   0.1021   0.1124   0.1141
  0.1241   0.1365   0.1490   0.1518   0.1649   0.1677   0.1776   0.1795
  0.1868   0.1980   0.2005   0.2018   0.2110   0.2178   0.2213   0.2311
  0.2346   0.2416   0.2482   0.2547   0.2558   0.2615   0.2715   0.2770
  0.2871   0.2897   0.3038   0.3171   0.3276   0.3387   0.3407   0.3549
  0.3758   0.3988   0.4093   0.4349   0.4804   0.4886   0.5575   0.6293
  0.6790   0.7210   0.7261   0.7505   0.7688   0.7721   0.7868   0.7888
  0.7992   0.8058   0.8169   0.8324   0.8469   0.8594   0.8709   0.9097
  0.9564   0.9697   0.9781   1.0004   1.0111   1.0171   1.0238   1.0457
  1.0656   1.0919   1.1077   1.1271   1.1441   1.1668   1.1705   1.2222
  1.2288   1.2530   1.2764   1.2777   1.3064   1.3657   1.3739   1.3858
  1.4186   1.4627   1.4696   1.5078   1.5096   1.5160   1.5478   1.5540
  1.5996   1.6464   1.7063   1.8432   1.9055   1.9470   1.9479   1.9859
  2.0051   2.0602   2.0634   2.0643   2.1288   2.1676   2.2088   2.2341
  2.2406   2.2658   2.3116   2.3226   2.3292   2.3508   2.3816   2.4460
  2.4741   2.5145   2.6187   2.6273   2.7074   2.7294   2.7394   2.7766
  2.8138   2.8869   2.9223   2.9379   3.0313   3.0557   3.1945   3.3288
  3.5321   4.2580   4.3736   4.4036   4.4384   4.4744   4.5098   4.5933
  4.6328   4.9023
 --------------------------------------------------------------
 
          Ground-State Mulliken Net Atomic Charges

     Atom                 Charge (a.u.)
  ----------------------------------------
      1 C                    -0.092984
      2 C                    -0.482120
      3 C                    -0.014754
      4 C                    -0.940927
      5 C                     1.024179
      6 C                    -0.595315
      7 N                    -0.547753
      8 C                     0.046270
      9 C                    -0.214390
     10 H                     0.450661
     11 H                     0.238003
     12 H                     0.234295
     13 H                     0.221084
     14 H                     0.225260
     15 H                     0.219691
     16 H                     0.228801
  ----------------------------------------
  Sum of atomic charges =     0.000000

 -----------------------------------------------------------------
                    Cartesian Multipole Moments
 -----------------------------------------------------------------
    Charge (ESU x 10^10)
                -0.0000
    Dipole Moment (Debye)
         X      -1.5088      Y       1.5432      Z       0.0011
       Tot       2.1582
    Quadrupole Moments (Debye-Ang)
        XX     -45.0433     XY      -3.1263     YY     -44.2710
        XZ      -0.0034     YZ       0.0034     ZZ     -59.3408
    Octopole Moments (Debye-Ang^2)
       XXX     -14.8539    XXY       8.2074    XYY      -7.8523
       YYY      10.3246    XXZ       0.0080    XYZ      -0.0069
       YYZ       0.0021    XZZ      -2.0250    YZZ       2.0191
       ZZZ      -0.0008
    Hexadecapole Moments (Debye-Ang^3)
      XXXX    -804.6922   XXXY     -21.4014   XXYY    -194.1789
      XYYY     -19.2844   YYYY    -363.6469   XXXZ      -0.0252
      XXYZ       0.0135   XYYZ      -0.0074   YYYZ       0.0148
      XXZZ    -189.4973   XYZZ      -3.9423   YYZZ     -93.5444
      XZZZ      -0.0014   YZZZ       0.0031   ZZZZ     -72.9035
 -----------------------------------------------------------------
 ----------------------------------------------------------------
             Standard Nuclear Orientation (Angstroms)
    I     Atom           X                Y                Z
 ----------------------------------------------------------------
    1      C       2.1510629040    -0.6892079969     0.0010583065
    2      C       2.1279268385     0.7158180020     0.0000481775
    3      C       0.9322968051     1.4130999466    -0.0000206639
    4      C      -0.2469111607     0.6702008918    -0.0000373513
    5      C      -0.2481930942    -0.7482991083     0.0000020775
    6      C       0.9794739374    -1.4235260513     0.0000165335
    7      N      -1.5617741827     1.0775918311    -0.0002621374
    8      C      -1.6201330769    -1.1629001718    -0.0001374500
    9      C      -2.3820131241    -0.0308062080     0.0002797387
   10      H      -1.8763152174     2.0300108152     0.0004667797
   11      H      -1.9921730325    -2.1730101887    -0.0003253498
   12      H      -3.4525491271     0.0824247420     0.0004541695
   13      H       3.0615938132     1.2620200454     0.0000497686
   14      H       0.9172517540     2.4953419460    -0.0000804893
   15      H       3.1042029277    -1.2007849526     0.0000467087
   16      H       1.0093479871    -2.5054210498    -0.0000328375
 ----------------------------------------------------------------
 Nuclear Repulsion Energy =         401.33685503 hartrees
 There are       31 alpha and       31 beta electrons
 Applying Cartesian multipole field
    Component          Value
    ---------          -----
     (2,0,0)        1.00000E-11
     (0,2,0)        2.00000E-11
     (0,0,2)       -3.00000E-11
 Nucleus-field energy     =     0.0000000117 hartrees
 Requested basis set is 6-31+G(d)
 There are 59 shells and 185 basis functions
 A cutoff of  1.0D-12 yielded   1657 shell pairs
 There are     17105 function pairs
 Smallest overlap matrix eigenvalue = 1.26E-06
 Guess MOs from SCF MO coefficient file

 -----------------------------------------------------------------------
  General SCF calculation program by
  Eric Jon Sundstrom, Paul Horn, Yuezhi Mao, Dmitri Zuev, Alec White,
  David Stuck, Shaama M.S., Shane Yost, Joonho Lee, David Small,
  Daniel Levine, Susi Lehtola, Hugh Burton, Evgeny Epifanovsky,
  Bang C. Huynh
 -----------------------------------------------------------------------
 Exchange:     0.4015 Hartree-Fock + 1.0000 SOGGA11-X
 Correlation:  1.0000 SOGGA11-X
 Using SG-1 standard quadrature grid
 using 4 threads for integral computing
 -------------------------------------------------------
 OpenMP Integral computing Module                
 Release: version 1.0, May 2013, Q-Chem Inc. Pittsburgh 
 -------------------------------------------------------
 A restricted SCF calculation will be
 performed using DIIS
 SCF converges when DIIS error is below 1.0e-08
 ---------------------------------------
  Cycle       Energy         DIIS error
 ---------------------------------------
    1    -363.7306384268      1.55e-05  
    2    -363.7306396170      4.10e-06  
    3    -363.7306396237      4.22e-06  
    4    -363.7306397056      6.83e-07  
    5    -363.7306397079      3.29e-07  
    6    -363.7306397086      7.66e-08  
    7    -363.7306397086      3.56e-08  
    8    -363.7306397086      1.62e-08  
    9    -363.7306397087      4.42e-09  Convergence criterion met
 ---------------------------------------
 SCF time:   CPU 27.22s  wall 9.00s 
 SCF   energy in the final basis set =     -363.7306397087
 Total energy in the final basis set =     -363.7306397087
 
 Direct TDDFT/TDA calculation will be performed
 Exchange:     0.4015 Hartree-Fock + 1.0000 SOGGA11-X
 Correlation:  1.0000 SOGGA11-X
 Using SG-1 standard quadrature grid
 Singlet excitation energies requested
 CIS energy converged when residual is below 10e- 6
 ---------------------------------------------------
 Iter    Rts Conv    Rts Left    Ttl Dev     Max Dev
 ---------------------------------------------------
   1         0           3      0.003518    0.001700
   2         0           3      0.001023    0.000528
   3         0           3      0.000419    0.000208
   4         0           3      0.000148    0.000077
   5         0           3      0.000050    0.000025
   6         0           3      0.000020    0.000009
   7         1           2      0.000007    0.000003
   8         2           1      0.000003    0.000001
   9         3           0      0.000002    0.000001    Roots Converged
 ---------------------------------------------------
 
 ---------------------------------------------------
         TDDFT/TDA Excitation Energies              
 ---------------------------------------------------

 Excited state   1: excitation energy (eV) =    5.1617
 Total energy for state  1:                  -363.54095076 au
    Multiplicity: Singlet
    Trans. Mom.: -0.0012 X   0.0021 Y   0.1383 Z
    Strength   :     0.0024189649
    D(   31) --> V(    2) amplitude =  0.9860

 Excited state   2: excitation energy (eV) =    5.2246
 Total energy for state  2:                  -363.53863798 au
    Multiplicity: Singlet
    Trans. Mom.:  0.0438 X  -0.5647 Y   0.0002 Z
    Strength   :     0.0410609028
    D(   30) --> V(    1) amplitude =  0.6964
    D(   31) --> V(    1) amplitude =  0.4990
    D(   31) --> V(    5) amplitude = -0.4304

 Excited state   3: excitation energy (eV) =    5.2535
 Total energy for state  3:                  -363.53757672 au
    Multiplicity: Singlet
    Trans. Mom.:  0.8782 X  -0.4141 Y  -0.0003 Z
    Strength   :     0.1213422473
    D(   30) --> V(    1) amplitude = -0.3928
    D(   30) --> V(    5) amplitude =  0.2568
    D(   31) --> V(    1) amplitude =  0.7741
    D(   31) --> V(    5) amplitude =  0.3772
 
 Finite difference gradient evaluation for state   3
 Ground state energy  =    -363.7306397087
 Excited state energy =    -363.5375767183
 
 ---------------------------------------------------
  SETman timing summary (seconds)
  CPU time                52.12s
  System time              0.00s
  Wall time               17.76s
 
 --------------------------------------------------------------
 
                    Orbital Energies (a.u.)
 --------------------------------------------------------------
 
 Alpha MOs
 -- Occupied --
-14.7115 -10.4944 -10.4911 -10.4609 -10.4564 -10.4557 -10.4555 -10.4499
-10.4478  -1.0886  -0.9367  -0.8751  -0.8239  -0.8045  -0.6985  -0.6672
 -0.6525  -0.6044  -0.5436  -0.5305  -0.4927  -0.4848  -0.4782  -0.4652
 -0.4441  -0.4048  -0.3827  -0.3825  -0.3207  -0.2571  -0.2400
 -- Virtual --
  0.0042   0.0054   0.0254   0.0301   0.0425   0.0441   0.0459   0.0625
  0.0679   0.0719   0.0726   0.0765   0.0963   0.1021   0.1124   0.1141
  0.1241   0.1366   0.1490   0.1518   0.1649   0.1677   0.1776   0.1795
  0.1868   0.1980   0.2005   0.2018   0.2110   0.2178   0.2214   0.2311
  0.2346   0.2415   0.2482   0.2547   0.2558   0.2615   0.2715   0.2770
  0.2871   0.2897   0.3037   0.3171   0.3277   0.3387   0.3407   0.3549
  0.3758   0.3988   0.4093   0.4349   0.4804   0.4886   0.5575   0.6295
  0.6790   0.7210   0.7261   0.7505   0.7689   0.7721   0.7869   0.7888
  0.7991   0.8058   0.8169   0.8324   0.8469   0.8594   0.8709   0.9097
  0.9564   0.9696   0.9781   1.0004   1.0109   1.0172   1.0238   1.0457
  1.0656   1.0918   1.1076   1.1271   1.1441   1.1668   1.1706   1.2222
  1.2289   1.2531   1.2764   1.2777   1.3064   1.3657   1.3739   1.3858
  1.4187   1.4626   1.4695   1.5078   1.5096   1.5160   1.5479   1.5539
  1.5996   1.6465   1.7063   1.8432   1.9055   1.9471   1.9478   1.9859
  2.0052   2.0602   2.0634   2.0643   2.1289   2.1676   2.2090   2.2342
  2.2405   2.2658   2.3117   2.3230   2.3288   2.3509   2.3817   2.4462
  2.4740   2.5146   2.6186   2.6273   2.7074   2.7294   2.7395   2.7767
  2.8138   2.8868   2.9223   2.9381   3.0312   3.0560   3.1944   3.3288
  3.5322   4.2581   4.3739   4.4034   4.4383   4.4744   4.5097   4.5933
  4.6328   4.9023
 --------------------------------------------------------------
 
          Ground-State Mulliken Net Atomic Charges

     Atom                 Charge (a.u.)
  ----------------------------------------
      1 C                    -0.092635
      2 C                    -0.482405
      3 C                    -0.014536
      4 C                    -0.941601
      5 C                     1.024720
      6 C                    -0.595324
      7 N                    -0.547772
      8 C                     0.045977
      9 C                    -0.214234
     10 H                     0.450659
     11 H                     0.238000
     12 H                     0.234297
     13 H                     0.221129
     14 H                     0.225255
     15 H                     0.219628
     16 H                     0.228841
  ----------------------------------------
  Sum of atomic charges =     0.000000

 -----------------------------------------------------------------
                    Cartesian Multipole Moments
 -----------------------------------------------------------------
    Charge (ESU x 10^10)
                -0.0000
    Dipole Moment (Debye)
         X      -1.5097      Y       1.5429      Z       0.0002
       Tot       2.1587
    Quadrupole Moments (Debye-Ang)
        XX     -45.0459     XY      -3.1250     YY     -44.2703
        XZ      -0.0062     YZ       0.0046     ZZ     -59.3402
    Octopole Moments (Debye-Ang^2)
       XXX     -14.8762    XXY       8.2101    XYY      -7.8491
       YYY      10.3036    XXZ      -0.0059    XYZ      -0.0041
       YYZ      -0.0050    XZZ      -2.0238    YZZ       2.0159
       ZZZ      -0.0200
    Hexadecapole Moments (Debye-Ang^3)
      XXXX    -804.7547   XXXY     -21.4071   XXYY    -194.1724
      XYYY     -19.3166   YYYY    -363.5920   XXXZ      -0.0878
      XXYZ       0.0250   XYYZ      -0.0246   YYYZ       0.0303
      XXZZ    -189.4914   XYZZ      -3.9491   YYZZ     -93.5388
      XZZZ      -0.0448   YZZZ       0.0176   ZZZZ     -72.9008
 -----------------------------------------------------------------
 ----------------------------------------------------------------
             Standard Nuclear Orientation (Angstroms)
    I     Atom           X                Y                Z
 ----------------------------------------------------------------
    1      C       2.1510629040    -0.6892079969    -0.0009416935
    2      C       2.1279268385     0.7158180020     0.0000481775
    3      C       0.9322968051     1.4130999466    -0.0000206639
    4      C      -0.2469111607     0.6702008918    -0.0000373513
    5      C      -0.2481930942    -0.7482991083     0.0000020775
    6      C       0.9794739374    -1.4235260513     0.0000165335
    7      N      -1.5617741827     1.0775918311    -0.0002621374
    8      C      -1.6201330769    -1.1629001718    -0.0001374500
    9      C      -2.3820131241    -0.0308062080     0.0002797387
   10      H      -1.8763152174     2.0300108152     0.0004667797
   11      H      -1.9921730325    -2.1730101887    -0.0003253498
   12      H      -3.4525491271     0.0824247420     0.0004541695
   13      H       3.0615938132     1.2620200454     0.0000497686
   14      H       0.9172517540     2.4953419460    -0.0000804893
   15      H       3.1042029277    -1.2007849526     0.0000467087
   16      H       1.0093479871    -2.5054210498    -0.0000328375
 ----------------------------------------------------------------
 Nuclear Repulsion Energy =         401.33685670 hartrees
 There are       31 alpha and       31 beta electrons
 Applying Cartesian multipole field
    Component          Value
    ---------          -----
     (2,0,0)        1.00000E-11
     (0,2,0)        2.00000E-11
     (0,0,2)       -3.00000E-11
 Nucleus-field energy     =     0.0000000117 hartrees
 Requested basis set is 6-31+G(d)
 There are 59 shells and 185 basis functions
 A cutoff of  1.0D-12 yielded   1657 shell pairs
 There are     17105 function pairs
 Smallest overlap matrix eigenvalue = 1.26E-06
 Guess MOs from SCF MO coefficient file

 -----------------------------------------------------------------------
  General SCF calculation program by
  Eric Jon Sundstrom, Paul Horn, Yuezhi Mao, Dmitri Zuev, Alec White,
  David Stuck, Shaama M.S., Shane Yost, Joonho Lee, David Small,
  Daniel Levine, Susi Lehtola, Hugh Burton, Evgeny Epifanovsky,
  Bang C. Huynh
 -----------------------------------------------------------------------
 Exchange:     0.4015 Hartree-Fock + 1.0000 SOGGA11-X
 Correlation:  1.0000 SOGGA11-X
 Using SG-1 standard quadrature grid
 using 4 threads for integral computing
 -------------------------------------------------------
 OpenMP Integral computing Module                
 Release: version 1.0, May 2013, Q-Chem Inc. Pittsburgh 
 -------------------------------------------------------
 A restricted SCF calculation will be
 performed using DIIS
 SCF converges when DIIS error is below 1.0e-08
 ---------------------------------------
  Cycle       Energy         DIIS error
 ---------------------------------------
    1    -363.7306375523      2.07e-05  
    2    -363.7306396638      2.06e-06  
    3    -363.7306397108      6.13e-07  
    4    -363.7306397128      2.09e-07  
    5    -363.7306397130      4.43e-08  
    6    -363.7306397130      2.14e-08  
    7    -363.7306397130      9.56e-09  Convergence criterion met
 ---------------------------------------
 SCF time:   CPU 20.69s  wall 7.00s 
 SCF   energy in the final basis set =     -363.7306397130
 Total energy in the final basis set =     -363.7306397130
 
 Direct TDDFT/TDA calculation will be performed
 Exchange:     0.4015 Hartree-Fock + 1.0000 SOGGA11-X
 Correlation:  1.0000 SOGGA11-X
 Using SG-1 standard quadrature grid
 Singlet excitation energies requested
 CIS energy converged when residual is below 10e- 6
 ---------------------------------------------------
 Iter    Rts Conv    Rts Left    Ttl Dev     Max Dev
 ---------------------------------------------------
   1         0           3      0.003518    0.001700
   2         0           3      0.001023    0.000528
   3         0           3      0.000419    0.000208
   4         0           3      0.000148    0.000077
   5         0           3      0.000050    0.000025
   6         0           3      0.000020    0.000009
   7         1           2      0.000007    0.000003
   8         2           1      0.000003    0.000001
   9         3           0      0.000002    0.000001    Roots Converged
 ---------------------------------------------------
 
 ---------------------------------------------------
         TDDFT/TDA Excitation Energies              
 ---------------------------------------------------

 Excited state   1: excitation energy (eV) =    5.1617
 Total energy for state  1:                  -363.54095078 au
    Multiplicity: Singlet
    Trans. Mom.:  0.0026 X  -0.0015 Y  -0.1383 Z
    Strength   :     0.0024192607
    D(   31) --> V(    2) amplitude =  0.9860

 Excited state   2: excitation energy (eV) =    5.2246
 Total energy for state  2:                  -363.53863801 au
    Multiplicity: Singlet
    Trans. Mom.:  0.0439 X  -0.5647 Y   0.0004 Z
    Strength   :     0.0410627803
    D(   30) --> V(    1) amplitude =  0.6964
    D(   31) --> V(    1) amplitude =  0.4990
    D(   31) --> V(    5) amplitude = -0.4303

 Excited state   3: excitation energy (eV) =    5.2535
 Total energy for state  3:                  -363.53757669 au
    Multiplicity: Singlet
    Trans. Mom.:  0.8782 X  -0.4141 Y   0.0005 Z
    Strength   :     0.1213401919
    D(   30) --> V(    1) amplitude = -0.3928
    D(   30) --> V(    5) amplitude =  0.2568
    D(   31) --> V(    1) amplitude =  0.7741
    D(   31) --> V(    5) amplitude =  0.3772
 
 Finite difference gradient evaluation for state   3
 Ground state energy  =    -363.7306397130
 Excited state energy =    -363.5375766929
 
 ---------------------------------------------------
  SETman timing summary (seconds)
  CPU time                52.09s
  System time              0.00s
  Wall time               17.76s
 
 --------------------------------------------------------------
 
                    Orbital Energies (a.u.)
 --------------------------------------------------------------
 
 Alpha MOs
 -- Occupied --
-14.7115 -10.4944 -10.4911 -10.4609 -10.4564 -10.4557 -10.4555 -10.4499
-10.4478  -1.0886  -0.9367  -0.8751  -0.8239  -0.8045  -0.6985  -0.6672
 -0.6525  -0.6044  -0.5436  -0.5305  -0.4927  -0.4848  -0.4782  -0.4652
 -0.4441  -0.4048  -0.3827  -0.3825  -0.3207  -0.2571  -0.2400
 -- Virtual --
  0.0042   0.0054   0.0254   0.0301   0.0425   0.0441   0.0459   0.0625
  0.0679   0.0719   0.0726   0.0765   0.0963   0.1021   0.1124   0.1141
  0.1241   0.1366   0.1490   0.1518   0.1649   0.1677   0.1776   0.1795
  0.1868   0.1980   0.2005   0.2018   0.2110   0.2178   0.2214   0.2311
  0.2346   0.2415   0.2482   0.2547   0.2558   0.2615   0.2715   0.2770
  0.2871   0.2897   0.3037   0.3171   0.3277   0.3387   0.3407   0.3549
  0.3758   0.3988   0.4093   0.4349   0.4804   0.4886   0.5575   0.6295
  0.6790   0.7210   0.7261   0.7505   0.7689   0.7721   0.7869   0.7888
  0.7991   0.8058   0.8169   0.8324   0.8469   0.8594   0.8709   0.9097
  0.9564   0.9696   0.9781   1.0004   1.0109   1.0172   1.0238   1.0457
  1.0656   1.0918   1.1076   1.1271   1.1441   1.1668   1.1706   1.2222
  1.2289   1.2531   1.2764   1.2777   1.3064   1.3657   1.3739   1.3858
  1.4187   1.4626   1.4695   1.5079   1.5096   1.5160   1.5479   1.5539
  1.5996   1.6465   1.7063   1.8432   1.9055   1.9471   1.9478   1.9859
  2.0052   2.0602   2.0634   2.0643   2.1289   2.1676   2.2090   2.2342
  2.2405   2.2658   2.3117   2.3230   2.3288   2.3509   2.3817   2.4462
  2.4740   2.5146   2.6186   2.6273   2.7074   2.7294   2.7395   2.7767
  2.8138   2.8868   2.9223   2.9381   3.0312   3.0560   3.1944   3.3288
  3.5322   4.2581   4.3739   4.4034   4.4383   4.4744   4.5097   4.5933
  4.6328   4.9023
 --------------------------------------------------------------
 
          Ground-State Mulliken Net Atomic Charges

     Atom                 Charge (a.u.)
  ----------------------------------------
      1 C                    -0.092633
      2 C                    -0.482406
      3 C                    -0.014522
      4 C                    -0.941604
      5 C                     1.024716
      6 C                    -0.595331
      7 N                    -0.547773
      8 C                     0.045977
      9 C                    -0.214234
     10 H                     0.450660
     11 H                     0.238000
     12 H                     0.234297
     13 H                     0.221129
     14 H                     0.225255
     15 H                     0.219628
     16 H                     0.228841
  ----------------------------------------
  Sum of atomic charges =     0.000000

 -----------------------------------------------------------------
                    Cartesian Multipole Moments
 -----------------------------------------------------------------
    Charge (ESU x 10^10)
                -0.0000
    Dipole Moment (Debye)
         X      -1.5097      Y       1.5429      Z       0.0020
       Tot       2.1587
    Quadrupole Moments (Debye-Ang)
        XX     -45.0459     XY      -3.1250     YY     -44.2703
        XZ      -0.0005     YZ       0.0022     ZZ     -59.3402
    Octopole Moments (Debye-Ang^2)
       XXX     -14.8762    XXY       8.2101    XYY      -7.8491
       YYY      10.3036    XXZ       0.0219    XYZ      -0.0097
       YYZ       0.0093    XZZ      -2.0238    YZZ       2.0159
       ZZZ       0.0183
    Hexadecapole Moments (Debye-Ang^3)
      XXXX    -804.7547   XXXY     -21.4072   XXYY    -194.1724
      XYYY     -19.3166   YYYY    -363.5921   XXXZ       0.0373
      XXYZ       0.0019   XYYZ       0.0098   YYYZ      -0.0007
      XXZZ    -189.4914   XYZZ      -3.9491   YYZZ     -93.5388
      XZZZ       0.0420   YZZZ      -0.0115   ZZZZ     -72.9008
 -----------------------------------------------------------------
 ----------------------------------------------------------------
             Standard Nuclear Orientation (Angstroms)
    I     Atom           X                Y                Z
 ----------------------------------------------------------------
    1      C       2.1510629040    -0.6892079969     0.0000583065
    2      C       2.1289268385     0.7158180020     0.0000481775
    3      C       0.9322968051     1.4130999466    -0.0000206639
    4      C      -0.2469111607     0.6702008918    -0.0000373513
    5      C      -0.2481930942    -0.7482991083     0.0000020775
    6      C       0.9794739374    -1.4235260513     0.0000165335
    7      N      -1.5617741827     1.0775918311    -0.0002621374
    8      C      -1.6201330769    -1.1629001718    -0.0001374500
    9      C      -2.3820131241    -0.0308062080     0.0002797387
   10      H      -1.8763152174     2.0300108152     0.0004667797
   11      H      -1.9921730325    -2.1730101887    -0.0003253498
   12      H      -3.4525491271     0.0824247420     0.0004541695
   13      H       3.0615938132     1.2620200454     0.0000497686
   14      H       0.9172517540     2.4953419460    -0.0000804893
   15      H       3.1042029277    -1.2007849526     0.0000467087
   16      H       1.0093479871    -2.5054210498    -0.0000328375
 ----------------------------------------------------------------
 Nuclear Repulsion Energy =         401.31978274 hartrees
 There are       31 alpha and       31 beta electrons
 Applying Cartesian multipole field
    Component          Value
    ---------          -----
     (2,0,0)        1.00000E-11
     (0,2,0)        2.00000E-11
     (0,0,2)       -3.00000E-11
 Nucleus-field energy     =     0.0000000117 hartrees
 Requested basis set is 6-31+G(d)
 There are 59 shells and 185 basis functions
 A cutoff of  1.0D-12 yielded   1657 shell pairs
 There are     17105 function pairs
 Smallest overlap matrix eigenvalue = 1.27E-06
 Guess MOs from SCF MO coefficient file

 -----------------------------------------------------------------------
  General SCF calculation program by
  Eric Jon Sundstrom, Paul Horn, Yuezhi Mao, Dmitri Zuev, Alec White,
  David Stuck, Shaama M.S., Shane Yost, Joonho Lee, David Small,
  Daniel Levine, Susi Lehtola, Hugh Burton, Evgeny Epifanovsky,
  Bang C. Huynh
 -----------------------------------------------------------------------
 Exchange:     0.4015 Hartree-Fock + 1.0000 SOGGA11-X
 Correlation:  1.0000 SOGGA11-X
 Using SG-1 standard quadrature grid
 using 4 threads for integral computing
 -------------------------------------------------------
 OpenMP Integral computing Module                
 Release: version 1.0, May 2013, Q-Chem Inc. Pittsburgh 
 -------------------------------------------------------
 A restricted SCF calculation will be
 performed using DIIS
 SCF converges when DIIS error is below 1.0e-08
 ---------------------------------------
  Cycle       Energy         DIIS error
 ---------------------------------------
    1    -363.7306409077      1.53e-05  
    2    -363.7306420061      3.00e-06  
    3    -363.7306420182      2.91e-06  
    4    -363.7306420551      5.51e-07  
    5    -363.7306420565      2.51e-07  
    6    -363.7306420568      7.00e-08  
    7    -363.7306420568      3.04e-08  
    8    -363.7306420568      9.05e-09  Convergence criterion met
 ---------------------------------------
 SCF time:   CPU 22.63s  wall 7.00s 
 SCF   energy in the final basis set =     -363.7306420568
 Total energy in the final basis set =     -363.7306420568
 
 Direct TDDFT/TDA calculation will be performed
 Exchange:     0.4015 Hartree-Fock + 1.0000 SOGGA11-X
 Correlation:  1.0000 SOGGA11-X
 Using SG-1 standard quadrature grid
 Singlet excitation energies requested
 CIS energy converged when residual is below 10e- 6
 ---------------------------------------------------
 Iter    Rts Conv    Rts Left    Ttl Dev     Max Dev
 ---------------------------------------------------
   1         0           3      0.003519    0.001701
   2         0           3      0.001023    0.000528
   3         0           3      0.000419    0.000210
   4         0           3      0.000148    0.000077
   5         0           3      0.000050    0.000025
   6         0           3      0.000020    0.000009
   7         1           2      0.000007    0.000003
   8         2           1      0.000003    0.000001
   9         3           0      0.000002    0.000001    Roots Converged
 ---------------------------------------------------
 
 ---------------------------------------------------
         TDDFT/TDA Excitation Energies              
 ---------------------------------------------------

 Excited state   1: excitation energy (eV) =    5.1609
 Total energy for state  1:                  -363.54098343 au
    Multiplicity: Singlet
    Trans. Mom.:  0.0019 X  -0.0018 Y  -0.1383 Z
    Strength   :     0.0024195159
    D(   31) --> V(    2) amplitude =  0.9860

 Excited state   2: excitation energy (eV) =    5.2229
 Total energy for state  2:                  -363.53870558 au
    Multiplicity: Singlet
    Trans. Mom.: -0.0612 X   0.5726 Y  -0.0003 Z
    Strength   :     0.0424305801
    D(   30) --> V(    1) amplitude =  0.6888
    D(   31) --> V(    1) amplitude = -0.5135
    D(   31) --> V(    5) amplitude = -0.4234

 Excited state   3: excitation energy (eV) =    5.2523
 Total energy for state  3:                  -363.53762321 au
    Multiplicity: Singlet
    Trans. Mom.:  0.8785 X  -0.4044 Y   0.0001 Z
    Strength   :     0.1203544242
    D(   30) --> V(    1) amplitude =  0.4058
    D(   30) --> V(    5) amplitude =  0.2533
    D(   31) --> V(    1) amplitude =  0.7646
    D(   31) --> V(    5) amplitude = -0.3854
 
 Finite difference gradient evaluation for state   3
 Ground state energy  =    -363.7306420568
 Excited state energy =    -363.5376232120
 
 ---------------------------------------------------
  SETman timing summary (seconds)
  CPU time                52.41s
  System time              0.00s
  Wall time               17.94s
 
 --------------------------------------------------------------
 
                    Orbital Energies (a.u.)
 --------------------------------------------------------------
 
 Alpha MOs
 -- Occupied --
-14.7115 -10.4944 -10.4911 -10.4610 -10.4564 -10.4557 -10.4556 -10.4500
-10.4478  -1.0886  -0.9367  -0.8751  -0.8239  -0.8045  -0.6985  -0.6672
 -0.6525  -0.6044  -0.5436  -0.5305  -0.4927  -0.4847  -0.4782  -0.4651
 -0.4442  -0.4048  -0.3828  -0.3824  -0.3207  -0.2571  -0.2399
 -- Virtual --
  0.0042   0.0054   0.0254   0.0301   0.0425   0.0441   0.0459   0.0625
  0.0679   0.0718   0.0726   0.0765   0.0963   0.1021   0.1124   0.1141
  0.1242   0.1366   0.1490   0.1518   0.1649   0.1677   0.1776   0.1795
  0.1868   0.1980   0.2004   0.2018   0.2110   0.2178   0.2214   0.2311
  0.2346   0.2415   0.2482   0.2547   0.2558   0.2615   0.2716   0.2770
  0.2871   0.2897   0.3038   0.3171   0.3277   0.3388   0.3406   0.3549
  0.3758   0.3987   0.4093   0.4349   0.4803   0.4886   0.5575   0.6294
  0.6790   0.7209   0.7261   0.7505   0.7687   0.7721   0.7869   0.7888
  0.7990   0.8058   0.8169   0.8324   0.8469   0.8593   0.8709   0.9097
  0.9564   0.9696   0.9782   1.0004   1.0110   1.0173   1.0238   1.0458
  1.0656   1.0918   1.1077   1.1271   1.1441   1.1668   1.1706   1.2220
  1.2288   1.2530   1.2764   1.2777   1.3063   1.3657   1.3739   1.3858
  1.4187   1.4626   1.4696   1.5079   1.5096   1.5160   1.5480   1.5538
  1.5996   1.6465   1.7063   1.8433   1.9054   1.9471   1.9477   1.9859
  2.0053   2.0603   2.0633   2.0643   2.1287   2.1674   2.2089   2.2341
  2.2402   2.2657   2.3117   2.3231   2.3284   2.3508   2.3816   2.4460
  2.4740   2.5146   2.6185   2.6272   2.7073   2.7294   2.7393   2.7767
  2.8135   2.8867   2.9223   2.9379   3.0310   3.0559   3.1944   3.3288
  3.5320   4.2581   4.3738   4.4033   4.4383   4.4745   4.5097   4.5933
  4.6328   4.9023
 --------------------------------------------------------------
 
          Ground-State Mulliken Net Atomic Charges

     Atom                 Charge (a.u.)
  ----------------------------------------
      1 C                    -0.091541
      2 C                    -0.483234
      3 C                    -0.013566
      4 C                    -0.942583
      5 C                     1.025714
      6 C                    -0.596351
      7 N                    -0.547777
      8 C                     0.045782
      9 C                    -0.214240
     10 H                     0.450665
     11 H                     0.238003
     12 H                     0.234306
     13 H                     0.221238
     14 H                     0.225169
     15 H                     0.219549
     16 H                     0.228867
  ----------------------------------------
  Sum of atomic charges =     0.000000

 -----------------------------------------------------------------
                    Cartesian Multipole Moments
 -----------------------------------------------------------------
    Charge (ESU x 10^10)
                -0.0000
    Dipole Moment (Debye)
         X      -1.5102      Y       1.5429      Z       0.0011
       Tot       2.1590
    Quadrupole Moments (Debye-Ang)
        XX     -45.0412     XY      -3.1212     YY     -44.2715
        XZ      -0.0034     YZ       0.0034     ZZ     -59.3418
    Octopole Moments (Debye-Ang^2)
       XXX     -14.8861    XXY       8.2256    XYY      -7.8519
       YYY      10.2996    XXZ       0.0080    XYZ      -0.0069
       YYZ       0.0021    XZZ      -2.0320    YZZ       2.0136
       ZZZ      -0.0008
    Hexadecapole Moments (Debye-Ang^3)
      XXXX    -804.8038   XXXY     -21.3585   XXYY    -194.1809
      XYYY     -19.3136   YYYY    -363.6026   XXXZ      -0.0252
      XXYZ       0.0135   XYYZ      -0.0074   YYYZ       0.0148
      XXZZ    -189.5121   XYZZ      -3.9539   YYZZ     -93.5438
      XZZZ      -0.0014   YZZZ       0.0031   ZZZZ     -72.9080
 -----------------------------------------------------------------
 ----------------------------------------------------------------
             Standard Nuclear Orientation (Angstroms)
    I     Atom           X                Y                Z
 ----------------------------------------------------------------
    1      C       2.1510629040    -0.6892079969     0.0000583065
    2      C       2.1269268385     0.7158180020     0.0000481775
[...]
 Applying Cartesian multipole field
    Component          Value
    ---------          -----
     (2,0,0)        1.00000E-11
     (0,2,0)        2.00000E-11
     (0,0,2)       -3.00000E-11
 Nucleus-field energy     =     0.0000000120 hartrees
 Requested basis set is 6-31+G(d)
 There are 59 shells and 185 basis functions
 A cutoff of  1.0D-12 yielded   1656 shell pairs
 There are     17099 function pairs
 Smallest overlap matrix eigenvalue = 1.49E-06
 Guess MOs from SCF MO coefficient file

 -----------------------------------------------------------------------
  General SCF calculation program by
  Eric Jon Sundstrom, Paul Horn, Yuezhi Mao, Dmitri Zuev, Alec White,
  David Stuck, Shaama M.S., Shane Yost, Joonho Lee, David Small,
  Daniel Levine, Susi Lehtola, Hugh Burton, Evgeny Epifanovsky,
  Bang C. Huynh
 -----------------------------------------------------------------------
 Exchange:     0.4015 Hartree-Fock + 1.0000 SOGGA11-X
 Correlation:  1.0000 SOGGA11-X
 Using SG-1 standard quadrature grid
 using 4 threads for integral computing
 -------------------------------------------------------
 OpenMP Integral computing Module                
 Release: version 1.0, May 2013, Q-Chem Inc. Pittsburgh 
 -------------------------------------------------------
 A restricted SCF calculation will be
 performed using DIIS
 SCF converges when DIIS error is below 1.0e-08
 ---------------------------------------
  Cycle       Energy         DIIS error
 ---------------------------------------
    1    -363.7251320835      2.41e-05  
    2    -363.7251339252      2.89e-06  
    3    -363.7251339264      3.18e-06  
    4    -363.7251339711      6.78e-07  
    5    -363.7251339731      3.06e-07  
    6    -363.7251339735      5.30e-08  
    7    -363.7251339735      2.41e-08  
    8    -363.7251339735      6.61e-09  Convergence criterion met
 ---------------------------------------
 SCF time:   CPU 23.56s  wall 9.00s 
 SCF   energy in the final basis set =     -363.7251339735
 Total energy in the final basis set =     -363.7251339735
 
 Direct TDDFT/TDA calculation will be performed
 Exchange:     0.4015 Hartree-Fock + 1.0000 SOGGA11-X
 Correlation:  1.0000 SOGGA11-X
 Using SG-1 standard quadrature grid
 Singlet excitation energies requested
 CIS energy converged when residual is below 10e- 6
 ---------------------------------------------------
 Iter    Rts Conv    Rts Left    Ttl Dev     Max Dev
 ---------------------------------------------------
   1         0           3      0.003598    0.001757
   2         0           3      0.001019    0.000526
   3         0           3      0.000381    0.000229
   4         0           3      0.000133    0.000066
   5         0           3      0.000043    0.000021
   6         0           3      0.000017    0.000009
   7         1           2      0.000005    0.000002
   8         3           0      0.000002    0.000001    Roots Converged
 ---------------------------------------------------
 
 ---------------------------------------------------
         TDDFT/TDA Excitation Energies              
 ---------------------------------------------------

 Excited state   1: excitation energy (eV) =    4.9147
 Total energy for state  1:                  -363.54452269 au
    Multiplicity: Singlet
    Trans. Mom.: -0.8970 X   0.6929 Y   0.0010 Z
    Strength   :     0.1546903417
    D(   30) --> V(    5) amplitude =  0.2790
    D(   31) --> V(    1) amplitude =  0.9151

 Excited state   2: excitation energy (eV) =    4.9612
 Total energy for state  2:                  -363.54281198 au
    Multiplicity: Singlet
    Trans. Mom.:  0.2535 X   0.3625 Y   0.0006 Z
    Strength   :     0.0237796336
    D(   30) --> V(    1) amplitude =  0.7878
    D(   31) --> V(    5) amplitude = -0.5620

 Excited state   3: excitation energy (eV) =    5.0027
 Total energy for state  3:                  -363.54128855 au
    Multiplicity: Singlet
    Trans. Mom.: -0.0015 X   0.0023 Y  -0.1504 Z
    Strength   :     0.0027742940
    D(   31) --> V(    2) amplitude =  0.9877
 
 Finite difference gradient evaluation for state   3
 Ground state energy  =    -363.7251339735
 Excited state energy =    -363.5412885515
 
 ---------------------------------------------------
  SETman timing summary (seconds)
  CPU time                48.53s
  System time              0.00s
  Wall time               16.69s
 
 --------------------------------------------------------------
 
                    Orbital Energies (a.u.)
 --------------------------------------------------------------
 
 Alpha MOs
 -- Occupied --
-14.7164 -10.5019 -10.4999 -10.4719 -10.4670 -10.4659 -10.4645 -10.4610
-10.4535  -1.0851  -0.9230  -0.8690  -0.8178  -0.7965  -0.6974  -0.6665
 -0.6467  -0.5997  -0.5468  -0.5265  -0.4893  -0.4845  -0.4740  -0.4580
 -0.4450  -0.4020  -0.3876  -0.3747  -0.3183  -0.2562  -0.2341
 -- Virtual --
 -0.0054   0.0048   0.0250   0.0300   0.0365   0.0432   0.0451   0.0611
  0.0674   0.0708   0.0711   0.0763   0.0961   0.1011   0.1112   0.1127
  0.1243   0.1365   0.1467   0.1503   0.1624   0.1665   0.1753   0.1777
  0.1859   0.1965   0.1996   0.2018   0.2095   0.2132   0.2190   0.2225
  0.2317   0.2369   0.2462   0.2489   0.2529   0.2584   0.2691   0.2758
  0.2837   0.2860   0.3002   0.3105   0.3173   0.3269   0.3365   0.3486
  0.3649   0.3873   0.3986   0.4204   0.4599   0.4816   0.5471   0.6060
  0.6418   0.7183   0.7275   0.7502   0.7622   0.7739   0.7806   0.7838
  0.7886   0.8062   0.8098   0.8290   0.8429   0.8442   0.8627   0.9049
  0.9483   0.9617   0.9719   1.0006   1.0111   1.0154   1.0212   1.0468
  1.0524   1.0875   1.1074   1.1220   1.1373   1.1602   1.1643   1.2155
  1.2217   1.2462   1.2712   1.2795   1.2905   1.3633   1.3656   1.3885
  1.4062   1.4484   1.4533   1.4869   1.5088   1.5201   1.5392   1.5420
  1.5921   1.6297   1.6879   1.8335   1.8710   1.9383   1.9401   1.9496
  1.9788   2.0424   2.0483   2.0554   2.0911   2.1046   2.1744   2.1884
  2.2049   2.2429   2.2814   2.2851   2.3112   2.3157   2.3532   2.4150
  2.4530   2.5045   2.5824   2.5982   2.6782   2.6819   2.7045   2.7318
  2.7777   2.8488   2.8870   2.8969   3.0159   3.0262   3.1499   3.2900
  3.4376   4.2443   4.3392   4.3956   4.4231   4.4615   4.5044   4.5794
  4.6224   4.8682
 --------------------------------------------------------------
 
          Ground-State Mulliken Net Atomic Charges

     Atom                 Charge (a.u.)
  ----------------------------------------
      1 C                    -0.125533
      2 C                    -0.421663
      3 C                    -0.110947
      4 C                    -0.911868
      5 C                     0.992149
      6 C                    -0.530434
      7 N                    -0.520397
      8 C                     0.005789
      9 C                    -0.206505
     10 H                     0.450989
     11 H                     0.237062
     12 H                     0.238668
     13 H                     0.221556
     14 H                     0.229165
     15 H                     0.219172
     16 H                     0.232797
  ----------------------------------------
  Sum of atomic charges =     0.000000

 -----------------------------------------------------------------
                    Cartesian Multipole Moments
 -----------------------------------------------------------------
    Charge (ESU x 10^10)
                 0.0000
    Dipole Moment (Debye)
         X      -1.5812      Y       1.6039      Z      -0.0002
       Tot       2.2523
    Quadrupole Moments (Debye-Ang)
        XX     -44.8631     XY      -3.2861     YY     -44.0789
        XZ      -0.0022     YZ       0.0000     ZZ     -60.0739
    Octopole Moments (Debye-Ang^2)
       XXX     -16.0589    XXY       8.8043    XYY      -7.6218
       YYY      10.6419    XXZ      -0.0093    XYZ      -0.0070
       YYZ      -0.0058    XZZ      -2.4032    YZZ       2.1978
       ZZZ      -0.0234
    Hexadecapole Moments (Debye-Ang^3)
      XXXX    -818.0639   XXXY     -22.3693   XXYY    -200.0950
      XYYY     -19.4459   YYYY    -374.2781   XXXZ      -0.0097
      XXYZ      -0.0061   XYYZ      -0.0165   YYYZ      -0.0312
      XXZZ    -195.8227   XYZZ      -4.1691   YYZZ     -97.5231
      XZZZ      -0.0090   YZZZ      -0.0340   ZZZZ     -75.1226
 -----------------------------------------------------------------
 ----------------------------------------------------------------
             Standard Nuclear Orientation (Angstroms)
    I     Atom           X                Y                Z
 ----------------------------------------------------------------
    1      C       2.1835109880    -0.6968709940    -0.0000850676
    2      C       2.1616813772     0.7285473955    -0.0000675784
    3      C       0.9294100130     1.4590041181    -0.0009201031
    4      C      -0.2498584902     0.6802875546     0.0001705142
    5      C      -0.2572344475    -0.7705061065     0.0000817250
    6      C       0.9804354684    -1.4739175545    -0.0000504185
    7      N      -1.5781198291     1.0758777772     0.0000141594
    8      C      -1.6232816265    -1.1756137782     0.0001386536
    9      C      -2.4177249083    -0.0158037208    -0.0000737514
   10      H      -1.8887477268     2.0357381379     0.0005402531
   11      H      -2.0050013733    -2.1906058385     0.0000919586
   12      H      -3.4939533793     0.0992371040    -0.0002323532
   13      H       3.1019915377     1.2751893506    -0.0001139966
   14      H       0.9098056750     2.5461001911     0.0001592109
   15      H       3.1454975066    -1.2035127638    -0.0001239145
   16      H       1.0046841664    -2.5605983800    -0.0000033102
 ----------------------------------------------------------------
 Nuclear Repulsion Energy =         395.54137771 hartrees
 There are       31 alpha and       31 beta electrons
 Applying Cartesian multipole field
    Component          Value
    ---------          -----
     (2,0,0)        1.00000E-11
     (0,2,0)        2.00000E-11
     (0,0,2)       -3.00000E-11
 Nucleus-field energy     =     0.0000000120 hartrees
 Requested basis set is 6-31+G(d)
 There are 59 shells and 185 basis functions
 A cutoff of  1.0D-12 yielded   1656 shell pairs
 There are     17099 function pairs
 Smallest overlap matrix eigenvalue = 1.49E-06
 Guess MOs from SCF MO coefficient file

 -----------------------------------------------------------------------
  General SCF calculation program by
  Eric Jon Sundstrom, Paul Horn, Yuezhi Mao, Dmitri Zuev, Alec White,
  David Stuck, Shaama M.S., Shane Yost, Joonho Lee, David Small,
  Daniel Levine, Susi Lehtola, Hugh Burton, Evgeny Epifanovsky,
  Bang C. Huynh
 -----------------------------------------------------------------------
 Exchange:     0.4015 Hartree-Fock + 1.0000 SOGGA11-X
 Correlation:  1.0000 SOGGA11-X
 Using SG-1 standard quadrature grid
 using 4 threads for integral computing
 -------------------------------------------------------
 OpenMP Integral computing Module                
 Release: version 1.0, May 2013, Q-Chem Inc. Pittsburgh 
 -------------------------------------------------------
 A restricted SCF calculation will be
 performed using DIIS
 SCF converges when DIIS error is below 1.0e-08
 ---------------------------------------
  Cycle       Energy         DIIS error
 ---------------------------------------
    1    -363.7251299758      3.52e-05  
    2    -363.7251339050      2.17e-06  
    3    -363.7251339607      4.25e-07  
    4    -363.7251339621      1.61e-07  
    5    -363.7251339622      5.78e-08  
    6    -363.7251339622      2.86e-08  
    7    -363.7251339622      5.97e-09  Convergence criterion met
 ---------------------------------------
 SCF time:   CPU 20.53s  wall 7.00s 
 SCF   energy in the final basis set =     -363.7251339622
 Total energy in the final basis set =     -363.7251339622
 
 Direct TDDFT/TDA calculation will be performed
 Exchange:     0.4015 Hartree-Fock + 1.0000 SOGGA11-X
 Correlation:  1.0000 SOGGA11-X
 Using SG-1 standard quadrature grid
 Singlet excitation energies requested
 CIS energy converged when residual is below 10e- 6
 ---------------------------------------------------
 Iter    Rts Conv    Rts Left    Ttl Dev     Max Dev
 ---------------------------------------------------
   1         0           3      0.003598    0.001757
   2         0           3      0.001019    0.000526
   3         0           3      0.000381    0.000229
   4         0           3      0.000133    0.000066
   5         0           3      0.000043    0.000021
   6         0           3      0.000017    0.000009
   7         1           2      0.000005    0.000002
   8         3           0      0.000002    0.000001    Roots Converged
 ---------------------------------------------------
 
 ---------------------------------------------------
         TDDFT/TDA Excitation Energies              
 ---------------------------------------------------

 Excited state   1: excitation energy (eV) =    4.9147
 Total energy for state  1:                  -363.54452269 au
    Multiplicity: Singlet
    Trans. Mom.: -0.8970 X   0.6928 Y  -0.0009 Z
    Strength   :     0.1546774342
    D(   30) --> V(    5) amplitude =  0.2790
    D(   31) --> V(    1) amplitude =  0.9151

 Excited state   2: excitation energy (eV) =    4.9612
 Total energy for state  2:                  -363.54281195 au
    Multiplicity: Singlet
    Trans. Mom.:  0.2535 X   0.3625 Y  -0.0003 Z
    Strength   :     0.0237786485
    D(   30) --> V(    1) amplitude =  0.7878
    D(   31) --> V(    5) amplitude = -0.5620

 Excited state   3: excitation energy (eV) =    5.0027
 Total energy for state  3:                  -363.54128851 au
    Multiplicity: Singlet
    Trans. Mom.:  0.0019 X  -0.0014 Y  -0.1504 Z
    Strength   :     0.0027746653
    D(   31) --> V(    2) amplitude =  0.9877
 
 Finite difference gradient evaluation for state   3
 Ground state energy  =    -363.7251339622
 Excited state energy =    -363.5412885130
 
 ---------------------------------------------------
  SETman timing summary (seconds)
  CPU time                49.08s
  System time              0.00s
  Wall time               16.41s
 
 --------------------------------------------------------------
 
                    Orbital Energies (a.u.)
 --------------------------------------------------------------
 
 Alpha MOs
 -- Occupied --
-14.7164 -10.5019 -10.4999 -10.4719 -10.4670 -10.4659 -10.4645 -10.4610
-10.4535  -1.0851  -0.9230  -0.8690  -0.8178  -0.7965  -0.6974  -0.6665
 -0.6467  -0.5997  -0.5468  -0.5265  -0.4893  -0.4845  -0.4740  -0.4580
 -0.4450  -0.4020  -0.3876  -0.3747  -0.3183  -0.2562  -0.2341
 -- Virtual --
 -0.0054   0.0048   0.0250   0.0300   0.0365   0.0432   0.0451   0.0611
  0.0674   0.0708   0.0711   0.0763   0.0961   0.1011   0.1112   0.1127
  0.1243   0.1365   0.1467   0.1503   0.1624   0.1665   0.1753   0.1777
  0.1859   0.1965   0.1996   0.2018   0.2095   0.2132   0.2190   0.2225
  0.2317   0.2369   0.2462   0.2489   0.2529   0.2584   0.2691   0.2758
  0.2837   0.2860   0.3002   0.3105   0.3173   0.3269   0.3365   0.3486
  0.3649   0.3873   0.3986   0.4204   0.4599   0.4816   0.5471   0.6060
  0.6418   0.7183   0.7275   0.7502   0.7622   0.7739   0.7806   0.7838
  0.7886   0.8062   0.8098   0.8290   0.8429   0.8442   0.8627   0.9049
  0.9483   0.9617   0.9719   1.0006   1.0111   1.0154   1.0212   1.0468
  1.0524   1.0875   1.1074   1.1220   1.1373   1.1602   1.1643   1.2155
  1.2217   1.2462   1.2712   1.2795   1.2905   1.3633   1.3657   1.3885
  1.4062   1.4484   1.4533   1.4869   1.5088   1.5201   1.5392   1.5420
  1.5921   1.6297   1.6879   1.8335   1.8710   1.9383   1.9401   1.9496
  1.9788   2.0424   2.0483   2.0554   2.0911   2.1046   2.1744   2.1884
  2.2049   2.2429   2.2814   2.2851   2.3112   2.3157   2.3532   2.4150
  2.4530   2.5045   2.5824   2.5982   2.6782   2.6819   2.7045   2.7318
  2.7777   2.8488   2.8870   2.8969   3.0159   3.0262   3.1499   3.2900
  3.4376   4.2443   4.3392   4.3956   4.4231   4.4615   4.5044   4.5794
  4.6224   4.8682
 --------------------------------------------------------------
 
          Ground-State Mulliken Net Atomic Charges

     Atom                 Charge (a.u.)
  ----------------------------------------
      1 C                    -0.125532
      2 C                    -0.421663
      3 C                    -0.110926
      4 C                    -0.911861
      5 C                     0.992121
      6 C                    -0.530445
      7 N                    -0.520397
      8 C                     0.005805
      9 C                    -0.206513
     10 H                     0.450989
     11 H                     0.237062
     12 H                     0.238668
     13 H                     0.221556
     14 H                     0.229165
     15 H                     0.219172
     16 H                     0.232797
  ----------------------------------------
  Sum of atomic charges =     0.000000

 -----------------------------------------------------------------
                    Cartesian Multipole Moments
 -----------------------------------------------------------------
    Charge (ESU x 10^10)
                 0.0000
    Dipole Moment (Debye)
         X      -1.5812      Y       1.6039      Z       0.0015
       Tot       2.2523
    Quadrupole Moments (Debye-Ang)
        XX     -44.8631     XY      -3.2861     YY     -44.0789
        XZ       0.0000     YZ       0.0046     ZZ     -60.0739
    Octopole Moments (Debye-Ang^2)
       XXX     -16.0589    XXY       8.8043    XYY      -7.6218
       YYY      10.6419    XXZ       0.0046    XYZ      -0.0018
       YYZ       0.0146    XZZ      -2.4032    YZZ       2.1978
       ZZZ       0.0148
    Hexadecapole Moments (Debye-Ang^3)
      XXXX    -818.0638   XXXY     -22.3693   XXYY    -200.0950
      XYYY     -19.4459   YYYY    -374.2781   XXXZ       0.0319
      XXYZ       0.0189   XYYZ       0.0043   YYYZ       0.0451
      XXZZ    -195.8227   XYZZ      -4.1691   YYZZ     -97.5231
      XZZZ       0.0303   YZZZ       0.0269   ZZZZ     -75.1226
 -----------------------------------------------------------------
 ----------------------------------------------------------------
             Standard Nuclear Orientation (Angstroms)
    I     Atom           X                Y                Z
 ----------------------------------------------------------------
    1      C       2.1835109880    -0.6968709940    -0.0000850676
    2      C       2.1616813772     0.7285473955    -0.0000675784
    3      C       0.9294100130     1.4590041181     0.0000798969
    4      C      -0.2488584902     0.6802875546     0.0001705142
    5      C      -0.2572344475    -0.7705061065     0.0000817250
    6      C       0.9804354684    -1.4739175545    -0.0000504185
    7      N      -1.5781198291     1.0758777772     0.0000141594
    8      C      -1.6232816265    -1.1756137782     0.0001386536
    9      C      -2.4177249083    -0.0158037208    -0.0000737514
   10      H      -1.8887477268     2.0357381379     0.0005402531
   11      H      -2.0050013733    -2.1906058385     0.0000919586
   12      H      -3.4939533793     0.0992371040    -0.0002323532
   13      H       3.1019915377     1.2751893506    -0.0001139966
   14      H       0.9098056750     2.5461001911     0.0001592109
   15      H       3.1454975066    -1.2035127638    -0.0001239145
   16      H       1.0046841664    -2.5605983800    -0.0000033102
 ----------------------------------------------------------------
 Nuclear Repulsion Energy =         395.53944996 hartrees
 There are       31 alpha and       31 beta electrons
 Applying Cartesian multipole field
    Component          Value
    ---------          -----
     (2,0,0)        1.00000E-11
     (0,2,0)        2.00000E-11
     (0,0,2)       -3.00000E-11
 Nucleus-field energy     =     0.0000000120 hartrees
 Requested basis set is 6-31+G(d)
 There are 59 shells and 185 basis functions
