
Running Job 1 of 1 QfuncsMN15-VI-2nd.in
qchem QfuncsMN15-VI-2nd.in_65922.0 /scratch/scaparas/job_3585207/qchem65922/ 0
/cm/shared/apps/spack/cpu/opt/spack/linux-centos8-zen2/gcc-10.2.0/qchem-5.3-5qddma6gy34jvefiv7mbcb7qm253n45r/exe/qcprog.exe_s QfuncsMN15-VI-2nd.in_65922.0 /scratch/scaparas/job_3585207/qchem65922/
                  Welcome to Q-Chem
     A Quantum Leap Into The Future Of Chemistry


 Q-Chem 5.3, Q-Chem, Inc., Pleasanton, CA (2020)

 License issued to: University of California, San Diego (site)

 Yihan Shao,  Zhengting Gan,  E. Epifanovsky,  A. T. B. Gilbert,  M. Wormit,  
 J. Kussmann,  A. W. Lange,  A. Behn,  Jia Deng,  Xintian Feng,  D. Ghosh,  
 M. Goldey,  P. R. Horn,  L. D. Jacobson,  I. Kaliman,  T. Kus,  A. Landau,  
 Jie Liu,  E. I. Proynov,  R. M. Richard,  R. P. Steele,  E. J. Sundstrom,  
 H. L. Woodcock III,  P. M. Zimmerman,  D. Zuev,  B. Alam,  B. Albrecht,  
 A. Aldossary,  E. Alguire,  S. A. Baeppler,  D. Barton,  Z. Benda,  
 Y. A. Bernard,  E. J. Berquist,  K. B. Bravaya,  H. Burton,  K. Carter-Fenk,  
 D. Casanova,  Chun-Min Chang,  Yunqing Chen,  A. Chien,  K. D. Closser,  
 M. P. Coons,  S. Coriani,  S. Dasgupta,  A. L. Dempwolff,  M. Diedenhofen,  
 Hainam Do,  R. G. Edgar,  Po-Tung Fang,  S. Faraji,  S. Fatehi,  
 Qingguo Feng,  J. Fosso-Tande,  J. Gayvert,  Qinghui Ge,  A. Ghysels,  
 G. Gidofalvi,  J. Gomes,  J. Gonthier,  S. Gulania,  A. Gunina,  D. Hait,  
 M. W. D. Hanson-Heine,  S. Hammes-Schiffer,  P. H. P. Harbach,  
 A. W. Hauser,  M. F. Herbst,  J. E. Herr,  E. G. Hohenstein,  Z. C. Holden,  
 S. Houck,  Kerwin Hui,  B. C. Huynh,  M. Ivanov,  T.-C. Jagau,  Hyunjun Ji,  
 B. Kaduk,  K. Khistyaev,  Jaehoon Kim,  P. Klunzinger,  K. Koh,  
 D. Kosenkov,  L. Koulias,  T. Kowalczyk,  C. M. Krauter,  A. Kunitsa,  
 Ka Un Lao,  A. Laurent,  K. V. Lawler,  Joonho Lee,  D. Lefrancois,  
 S. Lehtola,  D. S. Levine,  Yi-Pei Li,  You-Sheng Lin,  Fenglai Liu,  
 Kuan-Yu Liu,  E. Livshits,  M. Loipersberger,  A. Luenser,  P. Manohar,  
 E. Mansoor,  S. F. Manzer,  Shan-Ping Mao,  Yuezhi Mao,  N. Mardirossian,  
 A. V. Marenich,  T. Markovich,  L. A. Martinez-Martinez,  S. A. Maurer,  
 N. J. Mayhall,  S. C. McKenzie,  J.-M. Mewes,  P. Morgante,  A. F. Morrison,  
 J. W. Mullinax,  K. Nanda,  T. S. Nguyen-Beck,  R. Olivares-Amaya,  
 K. J. Oosterbaan,  J. A. Parkhill,  S. K. Paul,  F. Pavosevic,  Zheng Pei,  
 T. M. Perrine,  F. Plasser,  P. Pokhilko,  S. Prager,  A. Prociuk,  
 E. Ramos,  B. Rana,  D. R. Rehn,  F. Rob,  E. Rossomme,  M. Scheurer,  
 M. Schneider,  N. Sergueev,  S. M. Sharada,  S. Sharma,  W. Skomorowski,  
 D. W. Small,  T. Stauch,  C. J. Stein,  T. Stein,  Yu-Chuan Su,  
 S. P. Veccham,  Zhen Tao,  A. J. W. Thom,  A. Tkatchenko,  T. Tsuchimochi,  
 N. M. Tubman,  L. Vogt,  M. L. Vidal,  O. Vydrov,  M. A. Watson,  J. Wenzel,  
 M. de Wergifosse,  T. A. Wesolowski,  A. White,  J. Witte,  A. Yamada,  
 Jun Yang,  K. Yao,  S. Yeganeh,  S. R. Yost,  Zhi-Qiang You,  A. Zech,  
 Igor Ying Zhang,  Xing Zhang,  Yan Zhao,  Ying Zhu,  B. R. Brooks,  
 G. K. L. Chan,  C. J. Cramer,  M. S. Gordon,  W. J. Hehre,  A. Klamt,  
 M. W. Schmidt,  C. D. Sherrill,  D. G. Truhlar,  A. Aspuru-Guzik,  R. Baer,  
 A. T. Bell,  N. A. Besley,  Jeng-Da Chai,  A. E. DePrince, III,  
 R. A. DiStasio Jr.,  A. Dreuw,  B. D. Dunietz,  T. R. Furlani,  
 Chao-Ping Hsu,  Yousung Jung,  Jing Kong,  D. S. Lambrecht,  WanZhen Liang,  
 C. Ochsenfeld,  V. A. Rassolov,  L. V. Slipchenko,  J. E. Subotnik,  
 T. Van Voorhis,  J. M. Herbert,  A. I. Krylov,  P. M. W. Gill,  M. Head-Gordon

 Contributors to earlier versions of Q-Chem not listed above: 
 R. D. Adamson,  B. Austin,  J. Baker,  G. J. O. Beran,  K. Brandhorst,  
 S. T. Brown,  E. F. C. Byrd,  A. K. Chakraborty,  C.-L. Cheng,  
 Siu Hung Chien,  D. M. Chipman,  D. L. Crittenden,  H. Dachsel,  
 R. J. Doerksen,  A. D. Dutoi,  L. Fusti-Molnar,  W. A. Goddard III,  
 A. Golubeva-Zadorozhnaya,  S. R. Gwaltney,  G. Hawkins,  A. Heyden,  
 S. Hirata,  G. Kedziora,  F. J. Keil,  C. Kelley,  Jihan Kim,  R. A. King,  
 R. Z. Khaliullin,  P. P. Korambath,  W. Kurlancheek,  A. M. Lee,  M. S. Lee,  
 S. V. Levchenko,  Ching Yeh Lin,  D. Liotard,  R. C. Lochan,  I. Lotan,  
 P. E. Maslen,  N. Nair,  D. P. O'Neill,  D. Neuhauser,  E. Neuscamman,  
 C. M. Oana,  R. Olson,  B. Peters,  R. Peverati,  P. A. Pieniazek,  
 Y. M. Rhee,  J. Ritchie,  M. A. Rohrdanz,  E. Rosta,  N. J. Russ,  
 H. F. Schaefer III,  N. E. Schultz,  N. Shenvi,  A. C. Simmonett,  A. Sodt,  
 D. Stuck,  K. S. Thanthiriwatte,  V. Vanovschi,  Tao Wang,  A. Warshel,  
 C. F. Williams,  Q. Wu,  X. Xu,  W. Zhang

 Please cite Q-Chem as follows:
 Y. Shao et al., Mol. Phys. 113, 184-215 (2015)
 DOI: 10.1080/00268976.2014.952696

 Q-Chem 5.3.1 for Intel X86 EM64T Linux

 Parts of Q-Chem use Armadillo 9.800.1 (Horizon Scraper).
 http://arma.sourceforge.net/

 Q-Chem begins on Wed Jun 23 13:41:46 2021  

Host: 
0

     Scratch files written to /scratch/scaparas/job_3585207/qchem65922//
 Aug2920 |scratch|qcdevops|jenkins|workspace|build_RNUM    
Processing $rem in /cm/shared/apps/spack/cpu/opt/spack/linux-centos8-zen2/gcc-10.2.0/qchem-5.3-5qddma6gy34jvefiv7mbcb7qm253n45r/config/preferences:
Processing $rem in /home/scaparas/.qchemrc:

Checking the input file for inconsistencies... 	...done.

--------------------------------------------------------------
User input:
--------------------------------------------------------------
$molecule
0 1
C   -2.1510630    0.6892080    0.0000880
C   -2.1279270   -0.7158180    0.0000750
C   -0.9322970   -1.4131000   -0.0000110
C    0.2469110   -0.6702010   -0.0000420
C    0.2481930    0.7482990    0.0000000
C   -0.9794740    1.4235260    0.0000320
N    1.5617740   -1.0775920   -0.0002850
C    1.6201330    1.1629000   -0.0001570
C    2.3820130    0.0308060    0.0002480
H    1.8763150   -2.0300110    0.0004380
H    1.9921730    2.1730100   -0.0003480
H    3.4525490   -0.0824250    0.0004080
H   -3.0615940   -1.2620200    0.0000880
H   -0.9172520   -2.4953420   -0.0000730
H   -3.1042030    1.2007850    0.0000900
H   -1.0093480    2.5054210   -0.0000150
$end

$rem
BASIS  =  6-31+G*
GUI  =  2
JOB_TYPE  =  Optimization
METHOD  = MN15
SCF_CONVERGENCE  =  8
THRESH = 12
CIS_N_ROOTS  = 3
CIS_SINGLETS = true
CIS_TRIPLETS = false
CIS_STATE_DERIV = 2
MEM_STATIC=500
MEM_TOTAL=3000
$end
--------------------------------------------------------------
 ----------------------------------------------------------------
             Standard Nuclear Orientation (Angstroms)
    I     Atom           X                Y                Z
 ----------------------------------------------------------------
    1      C       2.1510629040    -0.6892079969     0.0000583065
    2      C       2.1279268385     0.7158180020     0.0000481775
    3      C       0.9322968051     1.4130999466    -0.0000206639
    4      C      -0.2469111607     0.6702008918    -0.0000373513
    5      C      -0.2481930942    -0.7482991083     0.0000020775
    6      C       0.9794739374    -1.4235260513     0.0000165335
    7      N      -1.5617741827     1.0775918311    -0.0002621374
    8      C      -1.6201330769    -1.1629001718    -0.0001374500
    9      C      -2.3820131241    -0.0308062080     0.0002797387
   10      H      -1.8763152174     2.0300108152     0.0004667797
   11      H      -1.9921730325    -2.1730101887    -0.0003253498
   12      H      -3.4525491271     0.0824247420     0.0004541695
   13      H       3.0615938132     1.2620200454     0.0000497686
   14      H       0.9172517540     2.4953419460    -0.0000804893
   15      H       3.1042029277    -1.2007849526     0.0000467087
   16      H       1.0093479871    -2.5054210498    -0.0000328375
 ----------------------------------------------------------------
 Molecular Point Group                 C1    NOp =  1
 Largest Abelian Subgroup              C1    NOp =  1
 Nuclear Repulsion Energy =         401.33686680 hartrees
 There are       31 alpha and       31 beta electrons
 Requested basis set is 6-31+G(d)
 There are 59 shells and 185 basis functions

 Total QAlloc Memory Limit   3000 MB
 Mega-Array Size       489 MB
 MEM_STATIC part       500 MB
 A cutoff of  1.0D-12 yielded   1657 shell pairs
 There are     17105 function pairs
 Smallest overlap matrix eigenvalue = 1.26E-06

 Scale SEOQF with 1.000000e-01/1.000000e-01/1.000000e-01

 Standard Electronic Orientation quadrupole field applied
 Nucleus-field energy     =     0.0000000117 hartrees
 Guess from superposition of atomic densities
 Warning:  Energy on first SCF cycle will be non-variational
 SAD guess density has 62.000000 electrons

 -----------------------------------------------------------------------
  General SCF calculation program by
  Eric Jon Sundstrom, Paul Horn, Yuezhi Mao, Dmitri Zuev, Alec White,
  David Stuck, Shaama M.S., Shane Yost, Joonho Lee, David Small,
  Daniel Levine, Susi Lehtola, Hugh Burton, Evgeny Epifanovsky,
  Bang C. Huynh
 -----------------------------------------------------------------------
 Exchange:     0.4400 Hartree-Fock + 1.0000 MN15
 Correlation:  1.0000 MN15
 Using SG-3 standard quadrature grid
 using 4 threads for integral computing
 -------------------------------------------------------
 OpenMP Integral computing Module                
 Release: version 1.0, May 2013, Q-Chem Inc. Pittsburgh 
 -------------------------------------------------------
 A restricted SCF calculation will be
 performed using DIIS
 SCF converges when DIIS error is below 1.0e-08
 ---------------------------------------
  Cycle       Energy         DIIS error
 ---------------------------------------
    1    -366.1446785733      5.61e-02  
    2    -363.2973961013      4.24e-03  
    3    -363.3132309892      4.07e-03  
    4    -363.3871190261      9.39e-04  
    5    -363.3903787637      3.88e-04  
    6    -363.3910032045      7.59e-05  
    7    -363.3910243041      3.02e-05  
    8    -363.3910282357      4.78e-06  
    9    -363.3910283252      2.82e-06  
   10    -363.3910283666      6.07e-07  
   11    -363.3910283691      3.38e-07  
   12    -363.3910283697      6.78e-08  
   13    -363.3910283697      4.08e-08  
   14    -363.3910283697      1.21e-08  
   15    -363.3910283697      3.52e-09  Convergence criterion met
 ---------------------------------------
 SCF time:   CPU 262.15s  wall 137.00s 
 SCF   energy in the final basis set =     -363.3910283697
 Total energy in the final basis set =     -363.3910283697
 
 Direct TDDFT/TDA calculation will be performed
 Exchange:     0.4400 Hartree-Fock + 1.0000 MN15
 Correlation:  1.0000 MN15
 Using SG-3 standard quadrature grid
 Singlet excitation energies requested
 CIS energy converged when residual is below 10e- 6
 ---------------------------------------------------
 Iter    Rts Conv    Rts Left    Ttl Dev     Max Dev
 ---------------------------------------------------
   1         0           3      0.003789    0.001808
   2         0           3      0.001133    0.000564
   3         0           3      0.000470    0.000241
   4         0           3      0.000183    0.000083
   5         0           3      0.000067    0.000026
   6         0           3      0.000023    0.000008
   7         0           3      0.000010    0.000004
   8         2           1      0.000003    0.000002
   9         3           0      0.000002    0.000001    Roots Converged
 ---------------------------------------------------
 
 ---------------------------------------------------
         TDDFT/TDA Excitation Energies              
 ---------------------------------------------------

 Excited state   1: excitation energy (eV) =    5.1187
 Total energy for state  1:                  -363.20291823 au
    Multiplicity: Singlet
    Trans. Mom.:  0.2536 X   0.3727 Y  -0.0001 Z
    Strength   :     0.0254830605
    D(   30) --> V(    1) amplitude =  0.7824
    D(   31) --> V(    3) amplitude = -0.5530

 Excited state   2: excitation energy (eV) =    5.2126
 Total energy for state  2:                  -363.19946921 au
    Multiplicity: Singlet
    Trans. Mom.:  0.7769 X  -0.5976 Y  -0.0002 Z
    Strength   :     0.1226874803
    D(   30) --> V(    3) amplitude =  0.3057
    D(   31) --> V(    1) amplitude =  0.8933

 Excited state   3: excitation energy (eV) =    5.9300
 Total energy for state  3:                  -363.17310579 au
    Multiplicity: Singlet
    Trans. Mom.: -0.0003 X   0.0002 Y  -0.1888 Z
    Strength   :     0.0051809898
    D(   31) --> V(    2) amplitude =  0.9690
 
 ---------------------------------------------------
 Calculating Relaxed Density
 ---------------------------------------------------
 Iter    Rts Conv    Rts Left    Ttl Dev     Max Dev
 ---------------------------------------------------
   1         0           3      0.001091    0.000531
   2         0           3      0.000463    0.000232
   3         0           3      0.000124    0.000050
   4         0           3      0.000039    0.000019
   5         0           3      0.000009    0.000004
   6         3           0      0.000000    0.000000    Roots Converged
 ---------------------------------------------------
  SETman timing summary (seconds)
  CPU time               953.41s
  System time              0.00s
  Wall time              481.48s
 
 --------------------------------------------------------------
 
                    Orbital Energies (a.u.)
 --------------------------------------------------------------
 
 Alpha MOs
 -- Occupied --
-14.1727 -10.1062 -10.1034 -10.0728 -10.0681 -10.0677 -10.0674 -10.0624
-10.0594  -1.0277  -0.8864  -0.8273  -0.7781  -0.7596  -0.6679  -0.6365
 -0.6241  -0.5842  -0.5228  -0.5131  -0.4781  -0.4725  -0.4700  -0.4513
 -0.4309  -0.3931  -0.3794  -0.3724  -0.3183  -0.2562  -0.2393
 -- Virtual --
  0.0095   0.0461   0.0469   0.0632   0.0699   0.0811   0.0849   0.0864
  0.0999   0.1079   0.1138   0.1141   0.1334   0.1372   0.1494   0.1536
  0.1565   0.1753   0.1831   0.1852   0.1991   0.2066   0.2106   0.2121
  0.2148   0.2205   0.2293   0.2379   0.2382   0.2406   0.2447   0.2504
  0.2626   0.2670   0.2742   0.2803   0.2813   0.2877   0.2966   0.3018
  0.3118   0.3173   0.3216   0.3409   0.3473   0.3542   0.3604   0.3784
  0.4003   0.4092   0.4187   0.4440   0.4733   0.4929   0.5533   0.6164
  0.6624   0.6934   0.7066   0.7238   0.7456   0.7465   0.7535   0.7606
  0.7680   0.7774   0.7836   0.8008   0.8185   0.8230   0.8374   0.8812
  0.9193   0.9316   0.9421   0.9620   0.9681   0.9756   0.9942   1.0049
  1.0288   1.0569   1.0733   1.0937   1.1203   1.1346   1.1370   1.1961
  1.1994   1.2234   1.2375   1.2477   1.2709   1.3275   1.3337   1.3408
  1.3821   1.4154   1.4311   1.4597   1.4612   1.4624   1.4907   1.4980
  1.5550   1.5986   1.6525   1.7827   1.8307   1.8662   1.8769   1.9033
  1.9332   1.9658   1.9746   1.9842   2.0445   2.0731   2.1152   2.1427
  2.1450   2.1714   2.2197   2.2244   2.2283   2.2533   2.2784   2.3383
  2.3707   2.4048   2.5105   2.5149   2.5857   2.6074   2.6126   2.6402
  2.6778   2.7558   2.7876   2.7913   2.8961   2.9150   3.0407   3.1566
  3.3498   4.1022   4.1888   4.2184   4.2520   4.2860   4.3205   4.3976
  4.4338   4.6910
 --------------------------------------------------------------
 
          Ground-State Mulliken Net Atomic Charges

     Atom                 Charge (a.u.)
  ----------------------------------------
      1 C                     0.001777
      2 C                    -0.431256
      3 C                    -0.047983
      4 C                    -0.650117
      5 C                     0.909679
      6 C                    -0.627027
      7 N                    -0.561087
      8 C                     0.316410
      9 C                    -0.333772
     10 H                     0.399905
     11 H                     0.178193
     12 H                     0.186449
     13 H                     0.162758
     14 H                     0.165593
     15 H                     0.161549
     16 H                     0.168931
  ----------------------------------------
  Sum of atomic charges =     0.000000

 -----------------------------------------------------------------
                    Cartesian Multipole Moments
 -----------------------------------------------------------------
    Charge (ESU x 10^10)
                -0.0000
    Dipole Moment (Debye)
         X      -1.5037      Y       1.5518      Z       0.0010
       Tot       2.1609
    Quadrupole Moments (Debye-Ang)
        XX     -45.4495     XY      -3.1455     YY     -44.6698
        XZ      -0.0032     YZ       0.0032     ZZ     -58.5772
    Octopole Moments (Debye-Ang^2)
       XXX     -15.1371    XXY       8.2677    XYY      -7.9811
       YYY      10.6323    XXZ       0.0073    XYZ      -0.0066
       YYZ       0.0021    XZZ      -2.0902    YZZ       2.0386
       ZZZ      -0.0011
    Hexadecapole Moments (Debye-Ang^3)
      XXXX    -816.1589   XXXY     -21.6403   XXYY    -196.6683
      XYYY     -19.9906   YYYY    -370.8645   XXXZ      -0.0231
      XXYZ       0.0128   XYYZ      -0.0070   YYYZ       0.0139
      XXZZ    -187.4606   XYZZ      -3.9171   YYZZ     -92.8694
      XZZZ      -0.0009   YZZZ       0.0029   ZZZZ     -72.1560
 -----------------------------------------------------------------
 Calculating analytic gradient of the CIS energy
 CIS relaxed dipole moment
            1
    1  -1.7800584
    2   0.5906067
    3  -0.0000207
	Magnitude:	 1.875 au	 4.767 Debye
 CIS 2 State Energy is -363.1994692139
 Gradient of the state energy (including CIS Excitation Energy)
            1           2           3           4           5           6
    1  -0.0261980  -0.0329341   0.0314180  -0.0136450   0.0182501   0.0083492
    2  -0.0270250   0.0344042  -0.0356207   0.0201993  -0.0102447   0.0359354
    3   0.0000031  -0.0000004  -0.0000057   0.0000189   0.0000195   0.0000009
            7           8           9          10          11          12
    1   0.0288026  -0.0437094   0.0260675   0.0038164   0.0018948   0.0040049
    2   0.0247061   0.0239569  -0.0596887  -0.0093105   0.0040995  -0.0008296
    3  -0.0000551  -0.0000210   0.0000453  -0.0000009  -0.0000029   0.0000004
           13          14          15          16
    1  -0.0037417   0.0008018  -0.0036167   0.0004397
    2  -0.0020179  -0.0037983   0.0013586   0.0038753
    3  -0.0000001   0.0000025  -0.0000012  -0.0000033
 Gradient time:  CPU 68.59 s  wall 34.63 s
 Geometry Optimization Parameters
   NAtoms,    NIC,     NZ,  NCons,   NDum,   NFix, NCnnct, MaxDiis
       16     116       0       0       0       0       0       0


** GEOMETRY OPTIMIZATION IN DELOCALIZED INTERNAL COORDINATES **
   Searching for a Minimum

   Optimization Cycle:   1

                       Coordinates (Angstroms)
     ATOM                X               Y               Z
      1  C         2.1510629040   -0.6892079969    0.0000583065
      2  C         2.1279268385    0.7158180020    0.0000481775
      3  C         0.9322968051    1.4130999466   -0.0000206639
      4  C        -0.2469111607    0.6702008918   -0.0000373513
      5  C        -0.2481930942   -0.7482991083    0.0000020775
      6  C         0.9794739374   -1.4235260513    0.0000165335
      7  N        -1.5617741827    1.0775918311   -0.0002621374
      8  C        -1.6201330769   -1.1629001718   -0.0001374500
      9  C        -2.3820131241   -0.0308062080    0.0002797387
     10  H        -1.8763152174    2.0300108152    0.0004667797
     11  H        -1.9921730325   -2.1730101887   -0.0003253498
     12  H        -3.4525491271    0.0824247420    0.0004541695
     13  H         3.0615938132    1.2620200454    0.0000497686
     14  H         0.9172517540    2.4953419460   -0.0000804893
     15  H         3.1042029277   -1.2007849526    0.0000467087
     16  H         1.0093479871   -2.5054210498   -0.0000328375
   Point Group: c1    Number of degrees of freedom:    42


   Energy is   -363.199469214


 Attempting to generate delocalized internal coordinates
 Initial Hessian constructed with Jon Baker's OPTIMIZE code

 42 Hessian modes will be used to form the next step
  Hessian Eigenvalues:
     0.018594    0.019738    0.020011    0.020794    0.021683    0.022200
     0.022636    0.023004    0.023236    0.023608    0.023851    0.023984
     0.024127    0.160000    0.160000    0.160000    0.160000    0.160000
     0.160000    0.160000    0.220000    0.221879    0.226618    0.240111
     0.246509    0.357123    0.357170    0.357835    0.357899    0.364196
     0.364272    0.370088    0.384319    0.426334    0.434649    0.457693
     0.466917    0.471622    0.474685    0.475669    0.481247    0.509555

 Minimum search - taking simple RFO step
 Searching for Lamda that Minimizes Along All modes
 Value Taken    Lamda =  -0.01878427
 Step Taken.  Stepsize is  0.204208

                             Maximum     Tolerance    Cnvgd?
         Gradient           0.038552      0.000300      NO
         Displacement       0.089484      0.001200      NO
         Energy change     *********      0.000001      NO


 New Cartesian Coordinates Obtained by Inverse Iteration

 Displacement from previous Coordinates is:  0.288201
 ----------------------------------------------------------------
             Standard Nuclear Orientation (Angstroms)
    I     Atom           X                Y                Z
 ----------------------------------------------------------------
    1      C       2.1937080025    -0.6969452289    -0.0000093827
    2      C       2.1541355849     0.7036599048    -0.0000123881
    3      C       0.9177228193     1.4307302742     0.0000171447
    4      C      -0.2569202883     0.6587161471     0.0000178489
    5      C      -0.2422699741    -0.7587781836     0.0000375323
    6      C       1.0000988986    -1.4659622132     0.0000313964
    7      N      -1.5976220462     1.0755951099    -0.0000786186
    8      C      -1.6115189519    -1.1531208235    -0.0000107174
    9      C      -2.4255880337     0.0038178045     0.0000796691
   10      H      -1.9087489637     2.0405172706     0.0006332703
   11      H      -1.9838157172    -2.1697671446    -0.0001664323
   12      H      -3.5014658191     0.1199738691     0.0000700463
   13      H       3.0911398723     1.2559692692    -0.0000484664
   14      H       0.8893906551     2.5180739264    -0.0000227807
   15      H       3.1592504078    -1.1965252298    -0.0000460167
   16      H       1.0255985049    -2.5534022597     0.0000338761
 ----------------------------------------------------------------
 Molecular Point Group                 C1    NOp =  1
 Largest Abelian Subgroup              C1    NOp =  1
 Nuclear Repulsion Energy =         396.99196618 hartrees
 There are       31 alpha and       31 beta electrons
 Applying Cartesian multipole field
    Component          Value
    ---------          -----
     (2,0,0)        1.00000E-11
     (0,2,0)        2.00000E-11
     (0,0,2)       -3.00000E-11
 Nucleus-field energy     =     0.0000000119 hartrees
 Requested basis set is 6-31+G(d)
 There are 59 shells and 185 basis functions
 A cutoff of  1.0D-12 yielded   1656 shell pairs
 There are     17099 function pairs
 Smallest overlap matrix eigenvalue = 1.35E-06
 Guess MOs from SCF MO coefficient file

 -----------------------------------------------------------------------
  General SCF calculation program by
  Eric Jon Sundstrom, Paul Horn, Yuezhi Mao, Dmitri Zuev, Alec White,
  David Stuck, Shaama M.S., Shane Yost, Joonho Lee, David Small,
  Daniel Levine, Susi Lehtola, Hugh Burton, Evgeny Epifanovsky,
  Bang C. Huynh
 -----------------------------------------------------------------------
 Exchange:     0.4400 Hartree-Fock + 1.0000 MN15
 Correlation:  1.0000 MN15
 Using SG-3 standard quadrature grid
 using 4 threads for integral computing
 -------------------------------------------------------
 OpenMP Integral computing Module                
 Release: version 1.0, May 2013, Q-Chem Inc. Pittsburgh 
 -------------------------------------------------------
 A restricted SCF calculation will be
 performed using DIIS
 SCF converges when DIIS error is below 1.0e-08
 ---------------------------------------
  Cycle       Energy         DIIS error
 ---------------------------------------
    1    -363.3801735990      8.48e-04  
    2    -363.3842950300      2.29e-04  
    3    -363.3844380475      1.70e-04  
    4    -363.3845539088      5.27e-05  
    5    -363.3845651985      2.01e-05  
    6    -363.3845675984      6.50e-06  
    7    -363.3845678397      2.21e-06  
    8    -363.3845678824      8.28e-07  
    9    -363.3845678864      4.49e-07  
   10    -363.3845678873      6.66e-08  
   11    -363.3845678874      3.93e-08  
   12    -363.3845678874      8.28e-09  Convergence criterion met
 ---------------------------------------
 SCF time:   CPU 205.72s  wall 103.00s 
 SCF   energy in the final basis set =     -363.3845678874
 Total energy in the final basis set =     -363.3845678874
 
 Direct TDDFT/TDA calculation will be performed
 Exchange:     0.4400 Hartree-Fock + 1.0000 MN15
 Correlation:  1.0000 MN15
 Using SG-3 standard quadrature grid
 Singlet excitation energies requested
 CIS energy converged when residual is below 10e- 6
 ---------------------------------------------------
 Iter    Rts Conv    Rts Left    Ttl Dev     Max Dev
 ---------------------------------------------------
   1         0           3      0.004714    0.001965
   2         0           3      0.001112    0.000466
   3         0           3      0.000431    0.000196
   4         0           3      0.000185    0.000106
   5         0           3      0.000147    0.000123
   6         0           3      0.000699    0.000692
   7         1           2      0.000377    0.000375
   8         2           1      0.000168    0.000166
   9         2           1      0.000057    0.000056
  10         2           1      0.000017    0.000015
  11         2           1      0.000008    0.000006
  12         2           1      0.000004    0.000003
  13         3           0      0.000002    0.000001    Roots Converged
 ---------------------------------------------------
 
 ---------------------------------------------------
         TDDFT/TDA Excitation Energies              
 ---------------------------------------------------

 Excited state   1: excitation energy (eV) =    4.7571
 Total energy for state  1:                  -363.20974915 au
    Multiplicity: Singlet
    Trans. Mom.:  0.8984 X  -0.7291 Y  -0.0001 Z
    Strength   :     0.1560189041
    D(   30) --> V(    2) amplitude = -0.2299
    D(   31) --> V(    1) amplitude =  0.9199

 Excited state   2: excitation energy (eV) =    4.9680
 Total energy for state  2:                  -363.20199675 au
    Multiplicity: Singlet
    Trans. Mom.:  0.0538 X   0.3142 Y  -0.0000 Z
    Strength   :     0.0123697368
    D(   30) --> V(    1) amplitude =  0.7478
    D(   31) --> V(    2) amplitude =  0.6098

 Excited state   3: excitation energy (eV) =    5.6317
 Total energy for state  3:                  -363.17760601 au
    Multiplicity: Singlet
    Trans. Mom.:  0.0004 X  -0.0002 Y   0.1964 Z
    Strength   :     0.0053243066
    D(   31) --> V(    3) amplitude = -0.9732
 
 ---------------------------------------------------
 Calculating Relaxed Density
 ---------------------------------------------------
 Iter    Rts Conv    Rts Left    Ttl Dev     Max Dev
 ---------------------------------------------------
   1         0           3      0.001235    0.000601
   2         0           3      0.000508    0.000238
   3         0           3      0.000138    0.000062
   4         0           3      0.000043    0.000020
   5         0           3      0.000010    0.000005
   6         2           1      0.000001    0.000001
   7         3           0      0.000000    0.000000    Roots Converged
 ---------------------------------------------------
  SETman timing summary (seconds)
  CPU time              1052.78s
  System time              0.00s
  Wall time              530.65s
 
 --------------------------------------------------------------
 
                    Orbital Energies (a.u.)
 --------------------------------------------------------------
 
 Alpha MOs
 -- Occupied --
-14.1772 -10.1124 -10.1089 -10.0827 -10.0776 -10.0748 -10.0737 -10.0710
-10.0618  -1.0266  -0.8800  -0.8192  -0.7796  -0.7501  -0.6683  -0.6361
 -0.6186  -0.5821  -0.5224  -0.5135  -0.4763  -0.4710  -0.4702  -0.4418
 -0.4323  -0.3910  -0.3773  -0.3766  -0.3120  -0.2629  -0.2294
 -- Virtual --
 -0.0009   0.0439   0.0445   0.0626   0.0701   0.0772   0.0835   0.0863
  0.0997   0.1080   0.1122   0.1126   0.1331   0.1356   0.1481   0.1528
  0.1547   0.1744   0.1811   0.1834   0.1964   0.2048   0.2087   0.2108
  0.2110   0.2179   0.2267   0.2344   0.2383   0.2393   0.2399   0.2490
  0.2598   0.2624   0.2729   0.2775   0.2790   0.2834   0.2927   0.3020
  0.3122   0.3128   0.3197   0.3333   0.3402   0.3466   0.3587   0.3748
  0.3946   0.3970   0.4034   0.4361   0.4582   0.4868   0.5444   0.6011
  0.6376   0.6937   0.7013   0.7222   0.7417   0.7475   0.7538   0.7576
  0.7586   0.7784   0.7801   0.7976   0.8094   0.8160   0.8273   0.8777
  0.9126   0.9244   0.9322   0.9639   0.9689   0.9746   0.9919   1.0063
  1.0199   1.0531   1.0698   1.0849   1.1148   1.1277   1.1371   1.1892
  1.1946   1.2205   1.2372   1.2423   1.2614   1.3247   1.3295   1.3424
  1.3707   1.4047   1.4148   1.4493   1.4622   1.4672   1.4820   1.4879
  1.5540   1.5905   1.6313   1.7716   1.8028   1.8500   1.8738   1.8897
  1.9047   1.9504   1.9654   1.9728   2.0043   2.0354   2.0913   2.1169
  2.1235   2.1566   2.1858   2.2038   2.2274   2.2332   2.2577   2.3147
  2.3491   2.3999   2.4789   2.4947   2.5634   2.5725   2.5923   2.6055
  2.6555   2.7297   2.7544   2.7722   2.8763   2.8970   2.9951   3.1343
  3.2862   4.0964   4.1653   4.2062   4.2378   4.2747   4.3179   4.3864
  4.4260   4.6705
 --------------------------------------------------------------
 
          Ground-State Mulliken Net Atomic Charges

     Atom                 Charge (a.u.)
  ----------------------------------------
      1 C                    -0.034854
      2 C                    -0.375867
      3 C                    -0.198167
      4 C                    -0.651487
      5 C                     0.997625
      6 C                    -0.489394
      7 N                    -0.540600
      8 C                     0.122815
      9 C                    -0.273742
     10 H                     0.401957
     11 H                     0.174212
     12 H                     0.192398
     13 H                     0.164434
     14 H                     0.169903
     15 H                     0.165928
     16 H                     0.174840
  ----------------------------------------
  Sum of atomic charges =     0.000000

 -----------------------------------------------------------------
                    Cartesian Multipole Moments
 -----------------------------------------------------------------
    Charge (ESU x 10^10)
                 0.0000
    Dipole Moment (Debye)
         X      -1.4834      Y       1.6970      Z       0.0009
       Tot       2.2539
    Quadrupole Moments (Debye-Ang)
        XX     -45.0488     XY      -3.8301     YY     -44.7454
        XZ      -0.0023     YZ       0.0030     ZZ     -59.1428
    Octopole Moments (Debye-Ang^2)
       XXX     -16.1144    XXY       9.4216    XYY      -7.5617
       YYY      11.5968    XXZ       0.0026    XYZ      -0.0066
       YYZ       0.0037    XZZ      -2.1689    YZZ       2.3586
       ZZZ      -0.0026
    Hexadecapole Moments (Debye-Ang^3)
      XXXX    -828.3398   XXXY     -22.2721   XXYY    -202.4215
      XYYY     -17.7916   YYYY    -375.4247   XXXZ      -0.0082
      XXYZ       0.0122   XYYZ      -0.0085   YYYZ       0.0123
      XXZZ    -193.5842   XYZZ      -2.6551   YYZZ     -95.2022
      XZZZ       0.0037   YZZZ       0.0008   ZZZZ     -74.0027
 -----------------------------------------------------------------
 Calculating analytic gradient of the CIS energy
 CIS relaxed dipole moment
            1
    1  -0.7940834
    2   0.5026306
    3   0.0002749
	Magnitude:	 0.940 au	 2.389 Debye
 CIS 2 State Energy is -363.2019967491
 Gradient of the state energy (including CIS Excitation Energy)
            1           2           3           4           5           6
    1  -0.0000730   0.0032428  -0.0084439   0.0073470  -0.0015818   0.0165000
    2   0.0185387  -0.0330586   0.0049784  -0.0412982   0.0314393  -0.0035776
    3  -0.0000003  -0.0000008   0.0000001  -0.0000017   0.0000128   0.0000004
            7           8           9          10          11          12
    1  -0.0364857   0.0232369  -0.0006358  -0.0031712   0.0004899  -0.0011118
    2  -0.0219837  -0.0058416   0.0475400   0.0007221   0.0004398   0.0020035
    3  -0.0000163  -0.0000053   0.0000077   0.0000078  -0.0000044   0.0000006
           13          14          15          16
    1   0.0011275  -0.0014968   0.0007607   0.0002952
    2  -0.0003484   0.0012201   0.0008696  -0.0016435
    3  -0.0000003   0.0000006  -0.0000000  -0.0000009
 Gradient time:  CPU 67.08 s  wall 33.70 s
 Geometry Optimization Parameters
   NAtoms,    NIC,     NZ,  NCons,   NDum,   NFix, NCnnct, MaxDiis
       16     116       0       0       0       0       0       0

 Cartesian Hessian Update
 Hessian updated using BFGS update


** GEOMETRY OPTIMIZATION IN DELOCALIZED INTERNAL COORDINATES **
   Searching for a Minimum

   Optimization Cycle:   2

                       Coordinates (Angstroms)
     ATOM                X               Y               Z
      1  C         2.1937080025   -0.6969452289   -0.0000093827
      2  C         2.1541355849    0.7036599048   -0.0000123881
      3  C         0.9177228193    1.4307302742    0.0000171447
      4  C        -0.2569202883    0.6587161471    0.0000178489
      5  C        -0.2422699741   -0.7587781836    0.0000375323
      6  C         1.0000988986   -1.4659622132    0.0000313964
      7  N        -1.5976220462    1.0755951099   -0.0000786186
      8  C        -1.6115189519   -1.1531208235   -0.0000107174
      9  C        -2.4255880337    0.0038178045    0.0000796691
     10  H        -1.9087489637    2.0405172706    0.0006332703
     11  H        -1.9838157172   -2.1697671446   -0.0001664323
     12  H        -3.5014658191    0.1199738691    0.0000700463
     13  H         3.0911398723    1.2559692692   -0.0000484664
     14  H         0.8893906551    2.5180739264   -0.0000227807
     15  H         3.1592504078   -1.1965252298   -0.0000460167
     16  H         1.0255985049   -2.5534022597    0.0000338761
   Point Group: c1    Number of degrees of freedom:    42


   Energy is   -363.201996749

 Hessian updated using BFGS update

 40 Hessian modes will be used to form the next step
  Hessian Eigenvalues:
     0.018594    0.019738    0.020011    0.020794    0.021683    0.022200
     0.022636    0.023004    0.023236    0.023608    0.023851    0.023984
     0.024127    0.159809    0.160000    0.160000    0.160000    0.160244
     0.216254    0.222472    0.226401    0.246225    0.249919    0.347706
     0.357149    0.357405    0.357870    0.360972    0.364244    0.369810
     0.374800    0.388239    0.427243    0.449419    0.459558    0.466968
     0.471829    0.476264    0.491636    0.939497

 Minimum search - taking simple RFO step
 Searching for Lamda that Minimizes Along All modes
 Value Taken    Lamda =  -0.00658666
 Step Taken.  Stepsize is  0.101013

                             Maximum     Tolerance    Cnvgd?
         Gradient           0.036149      0.000300      NO
         Displacement       0.057468      0.001200      NO
         Energy change     -0.002528      0.000001      NO


 New Cartesian Coordinates Obtained by Inverse Iteration

 Displacement from previous Coordinates is:  0.154469
 ----------------------------------------------------------------
             Standard Nuclear Orientation (Angstroms)
    I     Atom           X                Y                Z
 ----------------------------------------------------------------
    1      C       2.1851036285    -0.6952534509    -0.0000481541
    2      C       2.1638633882     0.7242290575    -0.0000314641
    3      C       0.9274348341     1.4540267787     0.0000438492
    4      C      -0.2478392852     0.6755466298     0.0000520207
    5      C      -0.2544293547    -0.7676973087     0.0000301555
    6      C       0.9818793387    -1.4718457338     0.0000108818
    7      N      -1.5825576891     1.0781578838     0.0000160203
    8      C      -1.6224768781    -1.1730320556     0.0000660519
    9      C      -2.4213842469    -0.0143938314    -0.0000238615
   10      H      -1.8898406295     2.0453519768     0.0006688035
   11      H      -1.9981235315    -2.1904358037    -0.0000306258
   12      H      -3.4976236532     0.0974132769    -0.0001234300
   13      H       3.1034635548     1.2730460140    -0.0000720977
   14      H       0.9036249611     2.5413650607     0.0000214423
   15      H       3.1462388780    -1.2050906755    -0.0000923534
   16      H       1.0057616360    -2.5588353259     0.0000387426
 ----------------------------------------------------------------
 Molecular Point Group                 C1    NOp =  1
 Largest Abelian Subgroup              C1    NOp =  1
 Nuclear Repulsion Energy =         395.56069991 hartrees
 There are       31 alpha and       31 beta electrons
 Applying Cartesian multipole field
    Component          Value
    ---------          -----
     (2,0,0)        1.00000E-11
     (0,2,0)        2.00000E-11
     (0,0,2)       -3.00000E-11
 Nucleus-field energy     =     0.0000000120 hartrees
 Requested basis set is 6-31+G(d)
 There are 59 shells and 185 basis functions
 A cutoff of  1.0D-12 yielded   1656 shell pairs
 There are     17099 function pairs
 Smallest overlap matrix eigenvalue = 1.46E-06
 Guess MOs from SCF MO coefficient file

 -----------------------------------------------------------------------
  General SCF calculation program by
  Eric Jon Sundstrom, Paul Horn, Yuezhi Mao, Dmitri Zuev, Alec White,
  David Stuck, Shaama M.S., Shane Yost, Joonho Lee, David Small,
  Daniel Levine, Susi Lehtola, Hugh Burton, Evgeny Epifanovsky,
  Bang C. Huynh
 -----------------------------------------------------------------------
 Exchange:     0.4400 Hartree-Fock + 1.0000 MN15
 Correlation:  1.0000 MN15
 Using SG-3 standard quadrature grid
 using 4 threads for integral computing
 -------------------------------------------------------
 OpenMP Integral computing Module                
 Release: version 1.0, May 2013, Q-Chem Inc. Pittsburgh 
 -------------------------------------------------------
 A restricted SCF calculation will be
 performed using DIIS
 SCF converges when DIIS error is below 1.0e-08
 ---------------------------------------
  Cycle       Energy         DIIS error
 ---------------------------------------
    1    -363.3840197968      5.31e-04  
    2    -363.3853429035      1.33e-04  
    3    -363.3853586122      1.26e-04  
    4    -363.3854252728      2.25e-05  
    5    -363.3854274419      9.53e-06  
    6    -363.3854279320      3.80e-06  
    7    -363.3854280190      1.29e-06  
    8    -363.3854280318      5.69e-07  
    9    -363.3854280336      2.51e-07  
   10    -363.3854280340      4.77e-08  
   11    -363.3854280340      2.70e-08  
   12    -363.3854280340      5.66e-09  Convergence criterion met
 ---------------------------------------
 SCF time:   CPU 205.68s  wall 104.00s 
 SCF   energy in the final basis set =     -363.3854280340
 Total energy in the final basis set =     -363.3854280340
 
 Direct TDDFT/TDA calculation will be performed
 Exchange:     0.4400 Hartree-Fock + 1.0000 MN15
 Correlation:  1.0000 MN15
 Using SG-3 standard quadrature grid
 Singlet excitation energies requested
 CIS energy converged when residual is below 10e- 6
 ---------------------------------------------------
 Iter    Rts Conv    Rts Left    Ttl Dev     Max Dev
 ---------------------------------------------------
   1         0           3      0.004716    0.001971
   2         0           3      0.001190    0.000491
   3         0           3      0.000427    0.000195
   4         0           3      0.000178    0.000096
   5         0           3      0.000117    0.000092
   6         0           3      0.000070    0.000063
   7         1           2      0.000073    0.000071
   8         2           1      0.000684    0.000683
   9         2           1      0.000257    0.000256
  10         2           1      0.000081    0.000080
  11         2           1      0.000027    0.000026
  12         2           1      0.000012    0.000011
  13         2           1      0.000005    0.000004
  14         2           1      0.000002    0.000001
  15         3           0      0.000002    0.000001    Roots Converged
 ---------------------------------------------------
 
 ---------------------------------------------------
         TDDFT/TDA Excitation Energies              
 ---------------------------------------------------

 Excited state   1: excitation energy (eV) =    4.8475
 Total energy for state  1:                  -363.20728527 au
    Multiplicity: Singlet
    Trans. Mom.:  0.8661 X  -0.6720 Y  -0.0000 Z
    Strength   :     0.1427103983
    D(   30) --> V(    2) amplitude =  0.2649
    D(   31) --> V(    1) amplitude =  0.8926
    D(   31) --> V(    2) amplitude = -0.2308

 Excited state   2: excitation energy (eV) =    4.8683
 Total energy for state  2:                  -363.20652185 au
    Multiplicity: Singlet
    Trans. Mom.:  0.1209 X   0.4145 Y  -0.0000 Z
    Strength   :     0.0222331551
    D(   30) --> V(    1) amplitude =  0.7635
    D(   31) --> V(    1) amplitude = -0.2307
    D(   31) --> V(    2) amplitude = -0.5616

 Excited state   3: excitation energy (eV) =    5.7441
 Total energy for state  3:                  -363.17433546 au
    Multiplicity: Singlet
    Trans. Mom.: -0.0003 X  -0.0001 Y  -0.1976 Z
    Strength   :     0.0054929833
    D(   31) --> V(    3) amplitude =  0.9721
 
 ---------------------------------------------------
 Calculating Relaxed Density
 ---------------------------------------------------
 Iter    Rts Conv    Rts Left    Ttl Dev     Max Dev
 ---------------------------------------------------
   1         0           3      0.001204    0.000601
   2         0           3      0.000496    0.000240
   3         0           3      0.000134    0.000057
   4         0           3      0.000043    0.000021
   5         0           3      0.000010    0.000005
   6         3           0      0.000000    0.000000    Roots Converged
 ---------------------------------------------------
  SETman timing summary (seconds)
  CPU time              1077.77s
  System time              0.00s
  Wall time              543.65s
 
 --------------------------------------------------------------
 
                    Orbital Energies (a.u.)
 --------------------------------------------------------------
 
 Alpha MOs
 -- Occupied --
-14.1775 -10.1139 -10.1116 -10.0834 -10.0784 -10.0777 -10.0758 -10.0730
-10.0648  -1.0224  -0.8748  -0.8211  -0.7736  -0.7521  -0.6662  -0.6358
 -0.6182  -0.5797  -0.5244  -0.5100  -0.4753  -0.4701  -0.4675  -0.4447
 -0.4321  -0.3901  -0.3778  -0.3726  -0.3152  -0.2569  -0.2329
 -- Virtual --
 -0.0009   0.0410   0.0451   0.0629   0.0695   0.0760   0.0836   0.0855
  0.0997   0.1079   0.1121   0.1122   0.1322   0.1360   0.1483   0.1522
  0.1547   0.1741   0.1807   0.1831   0.1963   0.2046   0.2083   0.2097
  0.2098   0.2176   0.2262   0.2331   0.2361   0.2388   0.2401   0.2477
  0.2594   0.2618   0.2712   0.2779   0.2792   0.2825   0.2927   0.3001
  0.3115   0.3129   0.3181   0.3318   0.3377   0.3443   0.3561   0.3708
  0.3896   0.3968   0.4040   0.4346   0.4551   0.4837   0.5408   0.5922
  0.6271   0.6939   0.7008   0.7228   0.7405   0.7468   0.7481   0.7544
  0.7594   0.7769   0.7773   0.7974   0.8058   0.8157   0.8284   0.8767
  0.9109   0.9246   0.9338   0.9631   0.9673   0.9750   0.9914   1.0045
  1.0167   1.0537   1.0704   1.0853   1.1142   1.1273   1.1327   1.1895
  1.1921   1.2171   1.2383   1.2414   1.2580   1.3255   1.3258   1.3417
  1.3709   1.4058   1.4102   1.4429   1.4591   1.4656   1.4823   1.4850
  1.5479   1.5854   1.6330   1.7696   1.7999   1.8514   1.8708   1.8884
  1.8905   1.9492   1.9567   1.9747   2.0032   2.0176   2.0823   2.0955
  2.1156   2.1464   2.1808   2.1911   2.2186   2.2187   2.2528   2.3086
  2.3474   2.3936   2.4728   2.4853   2.5572   2.5573   2.5871   2.5975
  2.6458   2.7215   2.7431   2.7639   2.8782   2.8902   2.9936   3.1186
  3.2642   4.0877   4.1559   4.2087   4.2375   4.2728   4.3139   4.3834
  4.4240   4.6602
 --------------------------------------------------------------
 
          Ground-State Mulliken Net Atomic Charges

     Atom                 Charge (a.u.)
  ----------------------------------------
      1 C                    -0.045037
      2 C                    -0.361552
      3 C                    -0.169691
      4 C                    -0.611332
      5 C                     0.891031
      6 C                    -0.521425
      7 N                    -0.547024
      8 C                     0.210211
      9 C                    -0.294755
     10 H                     0.402008
     11 H                     0.178619
     12 H                     0.191769
     13 H                     0.166317
     14 H                     0.171414
     15 H                     0.164635
     16 H                     0.174811
  ----------------------------------------
  Sum of atomic charges =     0.000000

 -----------------------------------------------------------------
                    Cartesian Multipole Moments
 -----------------------------------------------------------------
    Charge (ESU x 10^10)
                 0.0000
    Dipole Moment (Debye)
         X      -1.5457      Y       1.6121      Z       0.0007
       Tot       2.2334
    Quadrupole Moments (Debye-Ang)
        XX     -45.2541     XY      -3.3486     YY     -44.4984
        XZ      -0.0018     YZ       0.0027     ZZ     -59.2950
    Octopole Moments (Debye-Ang^2)
       XXX     -16.2531    XXY       8.8863    XYY      -7.7238
       YYY      11.1072    XXZ       0.0001    XYZ      -0.0058
       YYZ       0.0045    XZZ      -2.3838    YZZ       2.2055
       ZZZ      -0.0029
    Hexadecapole Moments (Debye-Ang^3)
      XXXX    -830.3374   XXXY     -22.3427   XXYY    -202.7505
      XYYY     -20.0407   YYYY    -380.5074   XXXZ       0.0015
      XXYZ       0.0100   XYYZ      -0.0087   YYYZ       0.0093
      XXZZ    -193.9401   XYZZ      -3.9103   YYZZ     -96.6449
      XZZZ       0.0063   YZZZ      -0.0017   ZZZZ     -74.3888
 -----------------------------------------------------------------
 Calculating analytic gradient of the CIS energy
 CIS relaxed dipole moment
            1
    1  -0.7751781
    2   0.4629876
    3   0.0002539
	Magnitude:	 0.903 au	 2.295 Debye
 CIS 2 State Energy is -363.2065218537
 Gradient of the state energy (including CIS Excitation Energy)
            1           2           3           4           5           6
    1   0.0049676   0.0049678  -0.0070630   0.0097995  -0.0059899   0.0055559
    2   0.0066001  -0.0141481   0.0095524  -0.0189530   0.0130917  -0.0084757
    3  -0.0000018  -0.0000019   0.0000016  -0.0000024  -0.0000005   0.0000006
            7           8           9          10          11          12
    1  -0.0256010   0.0176075  -0.0018856  -0.0013065  -0.0005931  -0.0012537
    2  -0.0089972  -0.0130547   0.0321710   0.0019584  -0.0011149   0.0001688
    3  -0.0000051   0.0000154  -0.0000133   0.0000100  -0.0000013  -0.0000016
           13          14          15          16
    1   0.0011283  -0.0003890   0.0008858  -0.0008308
    2   0.0011214   0.0012995   0.0000965  -0.0013160
    3  -0.0000002   0.0000004   0.0000002  -0.0000000
 Gradient time:  CPU 67.16 s  wall 33.74 s
 Geometry Optimization Parameters
   NAtoms,    NIC,     NZ,  NCons,   NDum,   NFix, NCnnct, MaxDiis
       16     116       0       0       0       0       0       0

 Cartesian Hessian Update
 Hessian updated using BFGS update


** GEOMETRY OPTIMIZATION IN DELOCALIZED INTERNAL COORDINATES **
   Searching for a Minimum

   Optimization Cycle:   3

                       Coordinates (Angstroms)
     ATOM                X               Y               Z
      1  C         2.1851036285   -0.6952534509   -0.0000481541
      2  C         2.1638633882    0.7242290575   -0.0000314641
      3  C         0.9274348341    1.4540267787    0.0000438492
      4  C        -0.2478392852    0.6755466298    0.0000520207
      5  C        -0.2544293547   -0.7676973087    0.0000301555
      6  C         0.9818793387   -1.4718457338    0.0000108818
      7  N        -1.5825576891    1.0781578838    0.0000160203
      8  C        -1.6224768781   -1.1730320556    0.0000660519
      9  C        -2.4213842469   -0.0143938314   -0.0000238615
     10  H        -1.8898406295    2.0453519768    0.0006688035
     11  H        -1.9981235315   -2.1904358037   -0.0000306258
     12  H        -3.4976236532    0.0974132769   -0.0001234300
     13  H         3.1034635548    1.2730460140   -0.0000720977
     14  H         0.9036249611    2.5413650607    0.0000214423
     15  H         3.1462388780   -1.2050906755   -0.0000923534
     16  H         1.0057616360   -2.5588353259    0.0000387426
   Point Group: c1    Number of degrees of freedom:    42


   Energy is   -363.206521854

 Hessian updated using BFGS update

 41 Hessian modes will be used to form the next step
  Hessian Eigenvalues:
     0.018594    0.019738    0.020011    0.020794    0.021683    0.022200
     0.022636    0.023004    0.023236    0.023608    0.023851    0.023984
     0.024127    0.159329    0.160000    0.160000    0.160000    0.160002
     0.161897    0.211941    0.223155    0.226862    0.245739    0.253343
     0.356919    0.357153    0.357680    0.357766    0.363982    0.364248
     0.368528    0.386212    0.417921    0.428791    0.450086    0.450685
     0.465558    0.471456    0.472362    0.477635    0.545672

 Minimum search - taking simple RFO step
 Searching for Lamda that Minimizes Along All modes
 Value Taken    Lamda =  -0.00414808
 Step Taken.  Stepsize is  0.106083

                             Maximum     Tolerance    Cnvgd?
         Gradient           0.018500      0.000300      NO
         Displacement       0.056044      0.001200      NO
         Energy change     -0.004525      0.000001      NO


 New Cartesian Coordinates Obtained by Inverse Iteration

 Displacement from previous Coordinates is:  0.139517
 ----------------------------------------------------------------
             Standard Nuclear Orientation (Angstroms)
    I     Atom           X                Y                Z
 ----------------------------------------------------------------
    1      C       2.1669453817    -0.6852173544    -0.0000177857
    2      C       2.1641189653     0.7387885526    -0.0000034731
    3      C       0.9353223928     1.4561070953     0.0000204625
    4      C      -0.2408844837     0.6842553821     0.0000374910
    5      C      -0.2636343170    -0.7706282117    -0.0000034727
    6      C       0.9655730773    -1.4585209930    -0.0000136418
    7      N      -1.5561208629     1.0706160497     0.0000248401
    8      C      -1.6363743050    -1.1785666811    -0.0000055950
    9      C      -2.4141516360    -0.0379390629     0.0000924109
   10      H      -1.8610888337     2.0359003006     0.0005070712
   11      H      -2.0117752846    -2.1937162160    -0.0001212986
   12      H      -3.4877291518     0.0801611860     0.0000662962
   13      H       3.1062034826     1.2778917200    -0.0000171539
   14      H       0.9130996339     2.5413110598    -0.0000108267
   15      H       3.1217011718    -1.2047955505    -0.0000372617
   16      H       1.0018897205    -2.5430947839     0.0000079184
 ----------------------------------------------------------------
 Molecular Point Group                 C1    NOp =  1
 Largest Abelian Subgroup              C1    NOp =  1
 Nuclear Repulsion Energy =         396.60052818 hartrees
 There are       31 alpha and       31 beta electrons
 Applying Cartesian multipole field
    Component          Value
    ---------          -----
     (2,0,0)        1.00000E-11
     (0,2,0)        2.00000E-11
     (0,0,2)       -3.00000E-11
 Nucleus-field energy     =     0.0000000120 hartrees
 Requested basis set is 6-31+G(d)
 There are 59 shells and 185 basis functions
 A cutoff of  1.0D-12 yielded   1656 shell pairs
 There are     17099 function pairs
 Smallest overlap matrix eigenvalue = 1.45E-06
 Guess MOs from SCF MO coefficient file

 -----------------------------------------------------------------------
  General SCF calculation program by
  Eric Jon Sundstrom, Paul Horn, Yuezhi Mao, Dmitri Zuev, Alec White,
  David Stuck, Shaama M.S., Shane Yost, Joonho Lee, David Small,
  Daniel Levine, Susi Lehtola, Hugh Burton, Evgeny Epifanovsky,
  Bang C. Huynh
 -----------------------------------------------------------------------
 Exchange:     0.4400 Hartree-Fock + 1.0000 MN15
 Correlation:  1.0000 MN15
 Using SG-3 standard quadrature grid
 using 4 threads for integral computing
 -------------------------------------------------------
 OpenMP Integral computing Module                
 Release: version 1.0, May 2013, Q-Chem Inc. Pittsburgh 
 -------------------------------------------------------
 A restricted SCF calculation will be
 performed using DIIS
 SCF converges when DIIS error is below 1.0e-08
 ---------------------------------------
  Cycle       Energy         DIIS error
 ---------------------------------------
    1    -363.3855725259      4.47e-04  
    2    -363.3868438952      1.03e-04  
    3    -363.3868771829      8.36e-05  
    4    -363.3869057233      2.80e-05  
    5    -363.3869094471      9.96e-06  
    6    -363.3869100531      4.33e-06  
    7    -363.3869101637      1.42e-06  
    8    -363.3869101762      5.24e-07  
    9    -363.3869101776      2.48e-07  
   10    -363.3869101779      4.56e-08  
   11    -363.3869101779      2.63e-08  
   12    -363.3869101779      5.66e-09  Convergence criterion met
 ---------------------------------------
 SCF time:   CPU 205.99s  wall 104.00s 
 SCF   energy in the final basis set =     -363.3869101779
 Total energy in the final basis set =     -363.3869101779
 
 Direct TDDFT/TDA calculation will be performed
 Exchange:     0.4400 Hartree-Fock + 1.0000 MN15
 Correlation:  1.0000 MN15
 Using SG-3 standard quadrature grid
 Singlet excitation energies requested
 CIS energy converged when residual is below 10e- 6
 ---------------------------------------------------
 Iter    Rts Conv    Rts Left    Ttl Dev     Max Dev
 ---------------------------------------------------
   1         0           3      0.004732    0.001968
   2         0           3      0.001376    0.000650
   3         0           3      0.000446    0.000212
   4         0           3      0.000174    0.000089
   5         0           3      0.000127    0.000099
   6         0           3      0.000084    0.000076
   7         1           2      0.000071    0.000069
   8         2           1      0.000787    0.000786
   9         2           1      0.000291    0.000290
  10         2           1      0.000093    0.000092
  11         2           1      0.000032    0.000031
  12         2           1      0.000016    0.000015
  13         2           1      0.000010    0.000009
  14         2           1      0.000005    0.000004
  15         2           1      0.000003    0.000002
  16         2           1      0.000002    0.000001
  17         3           0      0.000001    0.000001    Roots Converged
 ---------------------------------------------------
 
 ---------------------------------------------------
         TDDFT/TDA Excitation Energies              
 ---------------------------------------------------

 Excited state   1: excitation energy (eV) =    4.8478
 Total energy for state  1:                  -363.20875725 au
    Multiplicity: Singlet
    Trans. Mom.: -0.2799 X  -0.4932 Y   0.0001 Z
    Strength   :     0.0381900045
    D(   30) --> V(    1) amplitude =  0.7535
    D(   31) --> V(    1) amplitude = -0.3527
    D(   31) --> V(    2) amplitude =  0.4996

 Excited state   2: excitation energy (eV) =    5.0384
 Total energy for state  2:                  -363.20175421 au
    Multiplicity: Singlet
    Trans. Mom.: -0.7698 X   0.6015 Y   0.0001 Z
    Strength   :     0.1178105407
    D(   30) --> V(    1) amplitude =  0.2741
    D(   30) --> V(    2) amplitude = -0.2905
    D(   31) --> V(    1) amplitude =  0.8400
    D(   31) --> V(    2) amplitude =  0.2861

 Excited state   3: excitation energy (eV) =    5.9023
 Total energy for state  3:                  -363.17000310 au
    Multiplicity: Singlet
    Trans. Mom.: -0.0002 X  -0.0000 Y  -0.1745 Z
    Strength   :     0.0044015993
    D(   31) --> V(    3) amplitude =  0.9677
 
 ---------------------------------------------------
 Calculating Relaxed Density
 ---------------------------------------------------
 Iter    Rts Conv    Rts Left    Ttl Dev     Max Dev
 ---------------------------------------------------
   1         0           3      0.001120    0.000564
   2         0           3      0.000471    0.000243
   3         0           3      0.000129    0.000057
   4         0           3      0.000043    0.000024
   5         0           3      0.000011    0.000006
   6         2           1      0.000002    0.000002
   7         3           0      0.000000    0.000000    Roots Converged
 ---------------------------------------------------
  SETman timing summary (seconds)
  CPU time              1155.04s
  System time              0.00s
  Wall time              577.06s
 
 --------------------------------------------------------------
 
                    Orbital Energies (a.u.)
 --------------------------------------------------------------
 
 Alpha MOs
 -- Occupied --
-14.1752 -10.1126 -10.1104 -10.0801 -10.0767 -10.0758 -10.0745 -10.0704
-10.0652  -1.0223  -0.8742  -0.8255  -0.7699  -0.7572  -0.6662  -0.6349
 -0.6202  -0.5787  -0.5269  -0.5088  -0.4745  -0.4687  -0.4681  -0.4485
 -0.4335  -0.3905  -0.3753  -0.3714  -0.3192  -0.2517  -0.2382
 -- Virtual --
  0.0017   0.0416   0.0459   0.0633   0.0691   0.0775   0.0839   0.0853
  0.0998   0.1078   0.1124   0.1127   0.1324   0.1365   0.1487   0.1521
  0.1555   0.1744   0.1815   0.1835   0.1970   0.2052   0.2062   0.2106
  0.2106   0.2191   0.2267   0.2338   0.2350   0.2391   0.2410   0.2473
  0.2600   0.2636   0.2704   0.2791   0.2804   0.2833   0.2952   0.2991
  0.3114   0.3137   0.3190   0.3336   0.3388   0.3468   0.3542   0.3708
  0.3887   0.4031   0.4105   0.4377   0.4589   0.4868   0.5438   0.5935
  0.6312   0.6939   0.7020   0.7237   0.7386   0.7459   0.7482   0.7568
  0.7605   0.7762   0.7774   0.7984   0.8103   0.8164   0.8321   0.8772
  0.9128   0.9277   0.9373   0.9622   0.9661   0.9756   0.9920   1.0052
  1.0176   1.0544   1.0727   1.0897   1.1163   1.1299   1.1304   1.1895
  1.1945   1.2183   1.2387   1.2423   1.2602   1.3245   1.3275   1.3412
  1.3758   1.4073   1.4145   1.4433   1.4579   1.4660   1.4859   1.4883
  1.5390   1.5923   1.6384   1.7762   1.8116   1.8537   1.8715   1.8935
  1.8995   1.9533   1.9595   1.9772   2.0147   2.0182   2.0887   2.0946
  2.1128   2.1572   2.1860   2.1944   2.2206   2.2232   2.2577   2.3113
  2.3596   2.3929   2.4848   2.4918   2.5616   2.5657   2.5905   2.6074
  2.6476   2.7276   2.7486   2.7703   2.8890   2.8950   3.0081   3.1260
  3.2757   4.0858   4.1614   4.2120   4.2455   4.2783   4.3142   4.3867
  4.4259   4.6632
 --------------------------------------------------------------
 
          Ground-State Mulliken Net Atomic Charges

     Atom                 Charge (a.u.)
  ----------------------------------------
      1 C                    -0.032055
      2 C                    -0.372872
      3 C                    -0.108018
      4 C                    -0.580542
      5 C                     0.824480
      6 C                    -0.602988
      7 N                    -0.564237
      8 C                     0.300569
      9 C                    -0.308581
     10 H                     0.399857
     11 H                     0.181022
     12 H                     0.191253
     13 H                     0.167450
     14 H                     0.169855
     15 H                     0.161806
     16 H                     0.172999
  ----------------------------------------
  Sum of atomic charges =     0.000000

 -----------------------------------------------------------------
                    Cartesian Multipole Moments
 -----------------------------------------------------------------
    Charge (ESU x 10^10)
                -0.0000
    Dipole Moment (Debye)
         X      -1.6039      Y       1.5112      Z       0.0006
       Tot       2.2036
    Quadrupole Moments (Debye-Ang)
        XX     -45.3197     XY      -2.8711     YY     -44.5191
        XZ      -0.0015     YZ       0.0021     ZZ     -59.1436
    Octopole Moments (Debye-Ang^2)
       XXX     -16.3276    XXY       8.3040    XYY      -7.7469
       YYY      10.3895    XXZ       0.0014    XYZ      -0.0046
       YYZ       0.0023    XZZ      -2.4792    YZZ       2.0372
       ZZZ      -0.0032
    Hexadecapole Moments (Debye-Ang^3)
      XXXX    -825.8468   XXXY     -22.2753   XXYY    -201.5373
      XYYY     -22.4478   YYYY    -380.6461   XXXZ      -0.0001
      XXYZ       0.0073   XYYZ      -0.0045   YYYZ       0.0053
      XXZZ    -192.2998   XYZZ      -5.1020   YYZZ     -96.1075
      XZZZ       0.0075   YZZZ      -0.0037   ZZZZ     -73.8670
 -----------------------------------------------------------------
 Calculating analytic gradient of the CIS energy
 CIS relaxed dipole moment
            1
    1  -1.6624576
    2   0.6179446
    3   0.0001557
	Magnitude:	 1.774 au	 4.508 Debye
 CIS 2 State Energy is -363.2017542065
 Gradient of the state energy (including CIS Excitation Energy)
            1           2           3           4           5           6
    1  -0.0023308  -0.0008865   0.0123957  -0.0151962   0.0054289  -0.0136001
    2  -0.0171452   0.0336518  -0.0084403   0.0362344  -0.0217407   0.0062941
    3   0.0000013   0.0000001  -0.0000019   0.0000035  -0.0000006   0.0000000
            7           8           9          10          11          12
    1   0.0461271  -0.0331697  -0.0011505   0.0026721  -0.0000380   0.0005201
    2   0.0169478   0.0133723  -0.0556682  -0.0010243   0.0002397  -0.0018337
    3  -0.0000146   0.0000056   0.0000046   0.0000067  -0.0000018  -0.0000028
           13          14          15          16
    1  -0.0006649   0.0008607  -0.0003693  -0.0005986
    2  -0.0005656  -0.0007902  -0.0004397   0.0009077
    3  -0.0000003   0.0000006  -0.0000003  -0.0000002
 Gradient time:  CPU 67.59 s  wall 33.31 s
 Geometry Optimization Parameters
   NAtoms,    NIC,     NZ,  NCons,   NDum,   NFix, NCnnct, MaxDiis
       16     116       0       0       0       0       0       0

 Cartesian Hessian Update
 Hessian updated using BFGS update


** GEOMETRY OPTIMIZATION IN DELOCALIZED INTERNAL COORDINATES **
   Searching for a Minimum

   Optimization Cycle:   4

                       Coordinates (Angstroms)
     ATOM                X               Y               Z
      1  C         2.1669453817   -0.6852173544   -0.0000177857
      2  C         2.1641189653    0.7387885526   -0.0000034731
      3  C         0.9353223928    1.4561070953    0.0000204625
      4  C        -0.2408844837    0.6842553821    0.0000374910
      5  C        -0.2636343170   -0.7706282117   -0.0000034727
      6  C         0.9655730773   -1.4585209930   -0.0000136418
      7  N        -1.5561208629    1.0706160497    0.0000248401
      8  C        -1.6363743050   -1.1785666811   -0.0000055950
      9  C        -2.4141516360   -0.0379390629    0.0000924109
     10  H        -1.8610888337    2.0359003006    0.0005070712
     11  H        -2.0117752846   -2.1937162160   -0.0001212986
     12  H        -3.4877291518    0.0801611860    0.0000662962
     13  H         3.1062034826    1.2778917200   -0.0000171539
     14  H         0.9130996339    2.5413110598   -0.0000108267
     15  H         3.1217011718   -1.2047955505   -0.0000372617
     16  H         1.0018897205   -2.5430947839    0.0000079184
   Point Group: c1    Number of degrees of freedom:    42


   Energy is   -363.201754206

 Hessian updated using BFGS update

 42 Hessian modes will be used to form the next step
  Hessian Eigenvalues:
     0.018594    0.019738    0.020011    0.020794    0.021683    0.022200
     0.022636    0.023004    0.023236    0.023608    0.023851    0.023984
     0.024127    0.159554    0.159993    0.160000    0.160000    0.160000
     0.160160    0.161662    0.218835    0.223054    0.235144    0.246152
     0.258924    0.356495    0.357149    0.357625    0.357896    0.363827
     0.364376    0.372450    0.384736    0.426881    0.430808    0.450278
     0.456718    0.466258    0.471836    0.475810    0.525472    1.202630

 Minimum search - taking simple RFO step
 Searching for Lamda that Minimizes Along All modes
 Value Taken    Lamda =  -0.00493762
 Step Taken.  Stepsize is  0.067996

                             Maximum     Tolerance    Cnvgd?
         Gradient           0.041457      0.000300      NO
         Displacement       0.043661      0.001200      NO
         Energy change      0.004768      0.000001      NO


 New Cartesian Coordinates Obtained by Inverse Iteration

 Displacement from previous Coordinates is:  0.096936
 ----------------------------------------------------------------
             Standard Nuclear Orientation (Angstroms)
    I     Atom           X                Y                Z
 ----------------------------------------------------------------
    1      C       2.1742395135    -0.6906374524    -0.0000223251
    2      C       2.1568362445     0.7258574586     0.0000008623
    3      C       0.9272042580     1.4490088043     0.0000279796
    4      C      -0.2462781238     0.6768947824     0.0000408731
    5      C      -0.2555874816    -0.7688279143    -0.0000073192
    6      C       0.9766983979    -1.4638460703    -0.0000193350
    7      N      -1.5708972575     1.0761132069     0.0000158798
    8      C      -1.6241581338    -1.1713775103    -0.0000039750
    9      C      -2.4141630698    -0.0221978730     0.0000896580
   10      H      -1.8780502423     2.0411765662     0.0004853019
   11      H      -1.9993631358    -2.1869538547    -0.0001011059
   12      H      -3.4882517537     0.0941762667     0.0000757215
   13      H       3.0963365705     1.2707417591    -0.0000095115
   14      H       0.9048614895     2.5346633187    -0.0000000315
   15      H       3.1325974147    -1.2033271721    -0.0000437515
   16      H       1.0110702607    -2.5489118231    -0.0000029404
 ----------------------------------------------------------------
 Molecular Point Group                 C1    NOp =  1
 Largest Abelian Subgroup              C1    NOp =  1
 Nuclear Repulsion Energy =         396.74437602 hartrees
 There are       31 alpha and       31 beta electrons
 Applying Cartesian multipole field
    Component          Value
    ---------          -----
     (2,0,0)        1.00000E-11
     (0,2,0)        2.00000E-11
     (0,0,2)       -3.00000E-11
 Nucleus-field energy     =     0.0000000120 hartrees
 Requested basis set is 6-31+G(d)
 There are 59 shells and 185 basis functions
 A cutoff of  1.0D-12 yielded   1656 shell pairs
 There are     17099 function pairs
 Smallest overlap matrix eigenvalue = 1.41E-06
 Guess MOs from SCF MO coefficient file

 -----------------------------------------------------------------------
  General SCF calculation program by
  Eric Jon Sundstrom, Paul Horn, Yuezhi Mao, Dmitri Zuev, Alec White,
  David Stuck, Shaama M.S., Shane Yost, Joonho Lee, David Small,
  Daniel Levine, Susi Lehtola, Hugh Burton, Evgeny Epifanovsky,
  Bang C. Huynh
 -----------------------------------------------------------------------
 Exchange:     0.4400 Hartree-Fock + 1.0000 MN15
 Correlation:  1.0000 MN15
 Using SG-3 standard quadrature grid
 using 4 threads for integral computing
 -------------------------------------------------------
 OpenMP Integral computing Module                
 Release: version 1.0, May 2013, Q-Chem Inc. Pittsburgh 
 -------------------------------------------------------
 A restricted SCF calculation will be
 performed using DIIS
 SCF converges when DIIS error is below 1.0e-08
 ---------------------------------------
  Cycle       Energy         DIIS error
 ---------------------------------------
    1    -363.3870128003      2.98e-04  
    2    -363.3875496927      6.91e-05  
    3    -363.3875605283      6.07e-05  
    4    -363.3875760917      1.79e-05  
    5    -363.3875776064      6.67e-06  
    6    -363.3875778581      3.00e-06  
    7    -363.3875779126      8.83e-07  
    8    -363.3875779168      3.20e-07  
    9    -363.3875779174      1.10e-07  
   10    -363.3875779175      3.65e-08  
   11    -363.3875779175      8.46e-09  Convergence criterion met
 ---------------------------------------
 SCF time:   CPU 189.12s  wall 95.00s 
 SCF   energy in the final basis set =     -363.3875779175
 Total energy in the final basis set =     -363.3875779175
 
 Direct TDDFT/TDA calculation will be performed
 Exchange:     0.4400 Hartree-Fock + 1.0000 MN15
 Correlation:  1.0000 MN15
 Using SG-3 standard quadrature grid
 Singlet excitation energies requested
 CIS energy converged when residual is below 10e- 6
 ---------------------------------------------------
 Iter    Rts Conv    Rts Left    Ttl Dev     Max Dev
 ---------------------------------------------------
   1         0           3      0.004715    0.001969
   2         0           3      0.001216    0.000512
   3         0           3      0.000428    0.000197
   4         0           3      0.000177    0.000093
   5         0           3      0.000120    0.000094
   6         0           3      0.000072    0.000064
   7         1           2      0.000059    0.000057
   8         2           1      0.000775    0.000774
   9         2           1      0.000293    0.000292
  10         2           1      0.000095    0.000094
  11         2           1      0.000030    0.000029
  12         2           1      0.000014    0.000013
  13         2           1      0.000006    0.000005
  14         2           1      0.000003    0.000002
  15         3           0      0.000002    0.000001    Roots Converged
 ---------------------------------------------------
 
 ---------------------------------------------------
         TDDFT/TDA Excitation Energies              
 ---------------------------------------------------

 Excited state   1: excitation energy (eV) =    4.8909
 Total energy for state  1:                  -363.20784090 au
    Multiplicity: Singlet
    Trans. Mom.: -0.1677 X  -0.4490 Y   0.0000 Z
    Strength   :     0.0275275673
    D(   30) --> V(    1) amplitude =  0.7663
    D(   31) --> V(    1) amplitude = -0.2687
    D(   31) --> V(    2) amplitude =  0.5391

 Excited state   2: excitation energy (eV) =    4.9422
 Total energy for state  2:                  -363.20595538 au
    Multiplicity: Singlet
    Trans. Mom.: -0.8434 X   0.6417 Y   0.0001 Z
    Strength   :     0.1359961424
    D(   30) --> V(    2) amplitude = -0.2781
    D(   31) --> V(    1) amplitude =  0.8778
    D(   31) --> V(    2) amplitude =  0.2504

 Excited state   3: excitation energy (eV) =    5.8080
 Total energy for state  3:                  -363.17413699 au
    Multiplicity: Singlet
    Trans. Mom.: -0.0001 X  -0.0001 Y  -0.1936 Z
    Strength   :     0.0053347518
    D(   31) --> V(    3) amplitude =  0.9712
 
 ---------------------------------------------------
 Calculating Relaxed Density
 ---------------------------------------------------
 Iter    Rts Conv    Rts Left    Ttl Dev     Max Dev
 ---------------------------------------------------
   1         0           3      0.001170    0.000585
   2         0           3      0.000484    0.000239
   3         0           3      0.000130    0.000053
   4         0           3      0.000042    0.000021
   5         0           3      0.000010    0.000005
   6         3           0      0.000000    0.000000    Roots Converged
 ---------------------------------------------------
  SETman timing summary (seconds)
  CPU time              1078.74s
  System time              0.00s
  Wall time              541.26s
 
 --------------------------------------------------------------
 
                    Orbital Energies (a.u.)
 --------------------------------------------------------------
 
 Alpha MOs
 -- Occupied --
-14.1762 -10.1125 -10.1101 -10.0808 -10.0762 -10.0759 -10.0744 -10.0706
-10.0640  -1.0233  -0.8762  -0.8234  -0.7733  -0.7545  -0.6667  -0.6359
 -0.6195  -0.5800  -0.5250  -0.5101  -0.4752  -0.4703  -0.4685  -0.4465
 -0.4326  -0.3905  -0.3764  -0.3731  -0.3171  -0.2553  -0.2350
 -- Virtual --
  0.0009   0.0421   0.0454   0.0631   0.0695   0.0774   0.0839   0.0856
  0.0998   0.1079   0.1124   0.1127   0.1325   0.1362   0.1486   0.1524
  0.1553   0.1744   0.1812   0.1835   0.1970   0.2052   0.2082   0.2102
  0.2107   0.2187   0.2269   0.2341   0.2360   0.2393   0.2410   0.2479
  0.2601   0.2632   0.2716   0.2786   0.2797   0.2835   0.2939   0.3004
  0.3116   0.3138   0.3189   0.3342   0.3393   0.3464   0.3564   0.3717
  0.3908   0.4005   0.4080   0.4369   0.4588   0.4863   0.5438   0.5957
  0.6327   0.6939   0.7015   0.7232   0.7411   0.7464   0.7494   0.7571
  0.7598   0.7772   0.7784   0.7981   0.8091   0.8164   0.8305   0.8776
  0.9126   0.9261   0.9360   0.9635   0.9672   0.9751   0.9920   1.0054
  1.0185   1.0540   1.0718   1.0873   1.1153   1.1289   1.1329   1.1913
  1.1942   1.2185   1.2381   1.2426   1.2598   1.3264   1.3268   1.3413
  1.3740   1.4067   1.4143   1.4449   1.4594   1.4655   1.4847   1.4866
  1.5482   1.5906   1.6368   1.7736   1.8063   1.8558   1.8727   1.8940
  1.8976   1.9536   1.9607   1.9773   2.0114   2.0232   2.0935   2.0988
  2.1177   2.1535   2.1879   2.1963   2.2215   2.2231   2.2583   2.3136
  2.3552   2.3960   2.4824   2.4921   2.5624   2.5674   2.5909   2.6053
  2.6502   2.7282   2.7510   2.7694   2.8869   2.8942   3.0046   3.1276
  3.2794   4.0894   4.1630   4.2113   4.2413   4.2767   4.3152   4.3866
  4.4258   4.6658
 --------------------------------------------------------------
 
          Ground-State Mulliken Net Atomic Charges

     Atom                 Charge (a.u.)
  ----------------------------------------
      1 C                    -0.036213
      2 C                    -0.370935
      3 C                    -0.147831
      4 C                    -0.603072
      5 C                     0.879578
      6 C                    -0.554543
      7 N                    -0.553262
      8 C                     0.243644
      9 C                    -0.301798
     10 H                     0.401210
     11 H                     0.178925
     12 H                     0.191093
     13 H                     0.165942
     14 H                     0.170239
     15 H                     0.163210
     16 H                     0.173814
  ----------------------------------------
  Sum of atomic charges =     0.000000

 -----------------------------------------------------------------
                    Cartesian Multipole Moments
 -----------------------------------------------------------------
    Charge (ESU x 10^10)
                 0.0000
    Dipole Moment (Debye)
         X      -1.5594      Y       1.5794      Z       0.0006
       Tot       2.2195
    Quadrupole Moments (Debye-Ang)
        XX     -45.3113     XY      -3.2258     YY     -44.5265
        XZ      -0.0016     YZ       0.0021     ZZ     -59.1466
    Octopole Moments (Debye-Ang^2)
       XXX     -16.1515    XXY       8.6697    XYY      -7.7019
       YYY      10.8994    XXZ       0.0016    XYZ      -0.0044
       YYZ       0.0023    XZZ      -2.3525    YZZ       2.1498
       ZZZ      -0.0031
    Hexadecapole Moments (Debye-Ang^3)
      XXXX    -826.2331   XXXY     -22.1581   XXYY    -201.4701
      XYYY     -20.6333   YYYY    -379.2348   XXXZ      -0.0009
      XXYZ       0.0070   XYYZ      -0.0046   YYYZ       0.0047
      XXZZ    -192.3765   XYZZ      -4.1220   YYZZ     -95.9606
      XZZZ       0.0073   YZZZ      -0.0041   ZZZZ     -73.9160
 -----------------------------------------------------------------
 Calculating analytic gradient of the CIS energy
 CIS relaxed dipole moment
            1
    1  -1.7315283
    2   0.6259590
    3   0.0001618
	Magnitude:	 1.841 au	 4.680 Debye
 CIS 2 State Energy is -363.2059553775
 Gradient of the state energy (including CIS Excitation Energy)
            1           2           3           4           5           6
    1  -0.0014018  -0.0012808   0.0082561  -0.0119604   0.0049462  -0.0087613
    2  -0.0153054   0.0261245  -0.0089642   0.0295232  -0.0215140   0.0065558
    3   0.0000008   0.0000005  -0.0000019   0.0000048  -0.0000018   0.0000003
            7           8           9          10          11          12
    1   0.0324432  -0.0229962  -0.0009334   0.0013802   0.0004761   0.0005083
    2   0.0174738   0.0099227  -0.0417544  -0.0007600   0.0000009  -0.0005632
    3  -0.0000155   0.0000041   0.0000060   0.0000069  -0.0000013  -0.0000026
           13          14          15          16
    1  -0.0005442   0.0002486  -0.0003167  -0.0000639
    2  -0.0005594  -0.0003031  -0.0003654   0.0004881
    3  -0.0000002   0.0000004  -0.0000003  -0.0000001
 Gradient time:  CPU 67.34 s  wall 33.92 s
 Geometry Optimization Parameters
   NAtoms,    NIC,     NZ,  NCons,   NDum,   NFix, NCnnct, MaxDiis
       16     116       0       0       0       0       0       0

 Cartesian Hessian Update
 Hessian updated using BFGS update


** GEOMETRY OPTIMIZATION IN DELOCALIZED INTERNAL COORDINATES **
   Searching for a Minimum

   Optimization Cycle:   5

                       Coordinates (Angstroms)
     ATOM                X               Y               Z
      1  C         2.1742395135   -0.6906374524   -0.0000223251
      2  C         2.1568362445    0.7258574586    0.0000008623
      3  C         0.9272042580    1.4490088043    0.0000279796
      4  C        -0.2462781238    0.6768947824    0.0000408731
      5  C        -0.2555874816   -0.7688279143   -0.0000073192
      6  C         0.9766983979   -1.4638460703   -0.0000193350
      7  N        -1.5708972575    1.0761132069    0.0000158798
      8  C        -1.6241581338   -1.1713775103   -0.0000039750
      9  C        -2.4141630698   -0.0221978730    0.0000896580
     10  H        -1.8780502423    2.0411765662    0.0004853019
     11  H        -1.9993631358   -2.1869538547   -0.0001011059
     12  H        -3.4882517537    0.0941762667    0.0000757215
     13  H         3.0963365705    1.2707417591   -0.0000095115
     14  H         0.9048614895    2.5346633187   -0.0000000315
     15  H         3.1325974147   -1.2033271721   -0.0000437515
     16  H         1.0110702607   -2.5489118231   -0.0000029404
   Point Group: c1    Number of degrees of freedom:    42


   Energy is   -363.205955377

 Hessian updated using BFGS update

 42 Hessian modes will be used to form the next step
  Hessian Eigenvalues:
     0.018594    0.019738    0.020011    0.020794    0.021683    0.022200
     0.022636    0.023004    0.023236    0.023608    0.023851    0.023984
     0.024127    0.157174    0.159800    0.159997    0.160000    0.160000
     0.160284    0.161342    0.204888    0.221516    0.232146    0.245604
     0.273032    0.327627    0.356574    0.357151    0.357665    0.358366
     0.363886    0.364554    0.381717    0.395175    0.428091    0.432765
[...]
 Step Taken.  Stepsize is  0.109831

                             Maximum     Tolerance    Cnvgd?
         Gradient           0.039345      0.000300      NO
         Displacement       0.039954      0.001200      NO
         Energy change      0.008822      0.000001      NO


 New Cartesian Coordinates Obtained by Inverse Iteration

 Displacement from previous Coordinates is:  0.108076
 ----------------------------------------------------------------
             Standard Nuclear Orientation (Angstroms)
    I     Atom           X                Y                Z
 ----------------------------------------------------------------
    1      C       2.1793258616    -0.6943151514    -0.0000467386
    2      C       2.1499230679     0.7141936035     0.0000154981
    3      C       0.9215820191     1.4486801093     0.0000785993
    4      C      -0.2468865091     0.6692639515     0.0000664072
    5      C      -0.2481243715    -0.7633885172     0.0000044155
    6      C       0.9846601370    -1.4705658451    -0.0000534056
    7      N      -1.5852445109     1.0760820751     0.0001104926
    8      C      -1.6114901587    -1.1654747407     0.0000266386
    9      C      -2.4151718680    -0.0067751948     0.0000936730
   10      H      -1.8898282449     2.0424090321     0.0001621368
   11      H      -1.9905354095    -2.1800056127    -0.0000028842
   12      H      -3.4909095092     0.0996368690     0.0001185017
   13      H       3.0882335983     1.2634777000     0.0000185303
   14      H       0.9028662085     2.5341829464     0.0001224353
   15      H       3.1420268217    -1.1989577598    -0.0000890981
   16      H       1.0126678192    -2.5558909727    -0.0000992207
 ----------------------------------------------------------------
 Molecular Point Group                 C1    NOp =  1
 Largest Abelian Subgroup              C1    NOp =  1
 Nuclear Repulsion Energy =         396.88839629 hartrees
 There are       31 alpha and       31 beta electrons
 Applying Cartesian multipole field
    Component          Value
    ---------          -----
     (2,0,0)        1.00000E-11
     (0,2,0)        2.00000E-11
     (0,0,2)       -3.00000E-11
 Nucleus-field energy     =     0.0000000120 hartrees
 Requested basis set is 6-31+G(d)
 There are 59 shells and 185 basis functions
 A cutoff of  1.0D-12 yielded   1656 shell pairs
 There are     17099 function pairs
 Smallest overlap matrix eigenvalue = 1.39E-06
 Guess MOs from SCF MO coefficient file

 -----------------------------------------------------------------------
  General SCF calculation program by
  Eric Jon Sundstrom, Paul Horn, Yuezhi Mao, Dmitri Zuev, Alec White,
  David Stuck, Shaama M.S., Shane Yost, Joonho Lee, David Small,
  Daniel Levine, Susi Lehtola, Hugh Burton, Evgeny Epifanovsky,
  Bang C. Huynh
 -----------------------------------------------------------------------
 Exchange:     0.4400 Hartree-Fock + 1.0000 MN15
 Correlation:  1.0000 MN15
 Using SG-3 standard quadrature grid
 using 4 threads for integral computing
 -------------------------------------------------------
 OpenMP Integral computing Module                
 Release: version 1.0, May 2013, Q-Chem Inc. Pittsburgh 
 -------------------------------------------------------
 A restricted SCF calculation will be
 performed using DIIS
 SCF converges when DIIS error is below 1.0e-08
 ---------------------------------------
  Cycle       Energy         DIIS error
 ---------------------------------------
    1    -363.3845864586      4.64e-04  
    2    -363.3859640309      1.06e-04  
    3    -363.3859962733      9.45e-05  
    4    -363.3860328150      2.30e-05  
    5    -363.3860354214      9.56e-06  
    6    -363.3860359654      4.34e-06  
    7    -363.3860360856      1.27e-06  
    8    -363.3860360944      5.47e-07  
    9    -363.3860360959      2.16e-07  
   10    -363.3860360961      5.83e-08  
   11    -363.3860360962      1.63e-08  
   12    -363.3860360962      7.23e-09  Convergence criterion met
 ---------------------------------------
 SCF time:   CPU 206.44s  wall 104.00s 
 SCF   energy in the final basis set =     -363.3860360962
 Total energy in the final basis set =     -363.3860360962
 
 !!! Resetting NRoots !!!
 Direct TDDFT/TDA calculation will be performed
 Exchange:     0.4400 Hartree-Fock + 1.0000 MN15
 Correlation:  1.0000 MN15
 Using SG-3 standard quadrature grid
 Singlet excitation energies requested
 CIS energy converged when residual is below 10e- 6
 ---------------------------------------------------
 Iter    Rts Conv    Rts Left    Ttl Dev     Max Dev
 ---------------------------------------------------
   1         0           3      0.004720    0.001969
   2         0           3      0.001143    0.000468
   3         0           3      0.000426    0.000191
   4         0           3      0.000178    0.000098
   5         0           3      0.000110    0.000085
   6         0           3      0.000060    0.000052
   7         1           2      0.000032    0.000030
   8         2           1      0.000013    0.000012
   9         2           1      0.000006    0.000005
  10         2           1      0.000043    0.000042
  11         2           1      0.000361    0.000359
  12         2           1      0.000114    0.000113
  13         2           1      0.000038    0.000037
  14         2           1      0.000019    0.000018
  15         2           1      0.000007    0.000006
  16         2           1      0.000004    0.000003
  17         2           1      0.000002    0.000001
  18         3           0      0.000001    0.000001    Roots Converged
 ---------------------------------------------------
 
 ---------------------------------------------------
         TDDFT/TDA Excitation Energies              
 ---------------------------------------------------

 Excited state   1: excitation energy (eV) =    4.8159
 Total energy for state  1:                  -363.20905371 au
    Multiplicity: Singlet
    Trans. Mom.:  0.8837 X  -0.6954 Y  -0.0000 Z
    Strength   :     0.1491943722
    D(   30) --> V(    2) amplitude = -0.2495
    D(   31) --> V(    1) amplitude =  0.9067

 Excited state   2: excitation energy (eV) =    4.9261
 Total energy for state  2:                  -363.20500621 au
    Multiplicity: Singlet
    Trans. Mom.: -0.0854 X  -0.3732 Y  -0.0000 Z
    Strength   :     0.0176909199
    D(   30) --> V(    1) amplitude =  0.7598
    D(   31) --> V(    2) amplitude =  0.5819

 Excited state   3: excitation energy (eV) =    5.6917
 Total energy for state  3:                  -363.17686911 au
    Multiplicity: Singlet
    Trans. Mom.: -0.0000 X   0.0000 Y   0.1998 Z
    Strength   :     0.0055673231
    D(   31) --> V(    3) amplitude =  0.9726
 
 ---------------------------------------------------
 Calculating Relaxed Density
 ---------------------------------------------------
 Iter    Rts Conv    Rts Left    Ttl Dev     Max Dev
 ---------------------------------------------------
   1         0           3      0.001219    0.000599
   2         0           3      0.000502    0.000239
   3         0           3      0.000136    0.000060
   4         0           3      0.000043    0.000020
   5         0           3      0.000010    0.000005
   6         3           0      0.000000    0.000000    Roots Converged
 ---------------------------------------------------
  SETman timing summary (seconds)
  CPU time              1153.25s
  System time              0.00s
  Wall time              581.54s
 
 --------------------------------------------------------------
 
                    Orbital Energies (a.u.)
 --------------------------------------------------------------
 
 Alpha MOs
 -- Occupied --
-14.1770 -10.1124 -10.1098 -10.0821 -10.0768 -10.0752 -10.0739 -10.0710
-10.0624  -1.0248  -0.8783  -0.8212  -0.7764  -0.7518  -0.6673  -0.6365
 -0.6185  -0.5815  -0.5233  -0.5111  -0.4767  -0.4717  -0.4692  -0.4437
 -0.4313  -0.3895  -0.3786  -0.3750  -0.3146  -0.2593  -0.2311
 -- Virtual --
 -0.0001   0.0429   0.0450   0.0628   0.0698   0.0771   0.0839   0.0858
  0.0996   0.1080   0.1124   0.1126   0.1323   0.1359   0.1484   0.1527
  0.1549   0.1745   0.1809   0.1834   0.1968   0.2050   0.2092   0.2107
  0.2112   0.2177   0.2268   0.2343   0.2370   0.2392   0.2408   0.2485
  0.2602   0.2626   0.2725   0.2781   0.2790   0.2829   0.2927   0.3013
  0.3117   0.3133   0.3194   0.3340   0.3402   0.3461   0.3580   0.3737
  0.3926   0.3970   0.4056   0.4358   0.4591   0.4864   0.5438   0.5984
  0.6334   0.6938   0.7006   0.7228   0.7426   0.7469   0.7520   0.7565
  0.7590   0.7781   0.7795   0.7974   0.8079   0.8164   0.8295   0.8777
  0.9123   0.9243   0.9343   0.9631   0.9686   0.9754   0.9917   1.0046
  1.0197   1.0541   1.0706   1.0857   1.1146   1.1286   1.1365   1.1908
  1.1948   1.2198   1.2378   1.2428   1.2599   1.3251   1.3287   1.3418
  1.3720   1.4058   1.4108   1.4451   1.4617   1.4656   1.4823   1.4868
  1.5528   1.5880   1.6346   1.7724   1.8036   1.8552   1.8734   1.8924
  1.8954   1.9539   1.9637   1.9779   2.0084   2.0284   2.0920   2.1102
  2.1207   2.1524   2.1857   2.1967   2.2240   2.2285   2.2591   2.3172
  2.3506   2.4004   2.4775   2.4928   2.5594   2.5682   2.5901   2.6032
  2.6551   2.7287   2.7524   2.7693   2.8806   2.8980   3.0019   3.1269
  3.2817   4.0924   4.1640   4.2105   4.2377   4.2758   4.3165   4.3861
  4.4262   4.6667
 --------------------------------------------------------------
 
          Ground-State Mulliken Net Atomic Charges

     Atom                 Charge (a.u.)
  ----------------------------------------
      1 C                    -0.048742
      2 C                    -0.356931
      3 C                    -0.188624
      4 C                    -0.621711
      5 C                     0.925130
      6 C                    -0.507460
      7 N                    -0.543926
      8 C                     0.185784
      9 C                    -0.289037
     10 H                     0.401822
     11 H                     0.176763
     12 H                     0.191379
     13 H                     0.164327
     14 H                     0.171844
     15 H                     0.164440
     16 H                     0.174942
  ----------------------------------------
  Sum of atomic charges =     0.000000

 -----------------------------------------------------------------
                    Cartesian Multipole Moments
 -----------------------------------------------------------------
    Charge (ESU x 10^10)
                 0.0000
    Dipole Moment (Debye)
         X      -1.5155      Y       1.6534      Z       0.0001
       Tot       2.2429
    Quadrupole Moments (Debye-Ang)
        XX     -45.3055     XY      -3.5037     YY     -44.5241
        XZ      -0.0005     YZ       0.0007     ZZ     -59.1602
    Octopole Moments (Debye-Ang^2)
       XXX     -16.2508    XXY       8.9089    XYY      -7.5332
       YYY      11.3889    XXZ      -0.0009    XYZ      -0.0005
       YYZ      -0.0010    XZZ      -2.2516    YZZ       2.2580
       ZZZ      -0.0057
    Hexadecapole Moments (Debye-Ang^3)
      XXXX    -826.0013   XXXY     -22.0269   XXYY    -201.7062
      XYYY     -19.0956   YYYY    -377.8613   XXXZ       0.0045
      XXYZ       0.0002   XYYZ       0.0016   YYYZ      -0.0031
      XXZZ    -192.4487   XYZZ      -3.4703   YYZZ     -95.9237
      XZZZ       0.0111   YZZZ      -0.0086   ZZZZ     -74.0278
 -----------------------------------------------------------------
 Calculating analytic gradient of the CIS energy
 CIS relaxed dipole moment
            1
    1  -0.7843205
    2   0.4796095
    3   0.0000429
	Magnitude:	 0.919 au	 2.337 Debye
 CIS 2 State Energy is -363.2050062126
 Gradient of the state energy (including CIS Excitation Energy)
            1           2           3           4           5           6
    1   0.0011917   0.0005200  -0.0077973   0.0130310  -0.0051754   0.0082930
    2   0.0133213  -0.0238599   0.0086426  -0.0279123   0.0199201  -0.0063784
    3  -0.0000000  -0.0000013   0.0000027  -0.0000009  -0.0000007  -0.0000006
            7           8           9          10          11          12
    1  -0.0323379   0.0228841   0.0011879  -0.0011624  -0.0004435  -0.0003956
    2  -0.0149562  -0.0110251   0.0403752   0.0006032   0.0001328   0.0003129
    3  -0.0000007  -0.0000001   0.0000020   0.0000000   0.0000000   0.0000001
           13          14          15          16
    1   0.0003159  -0.0002133   0.0001979  -0.0000960
    2   0.0005596   0.0001069   0.0004348  -0.0002775
    3  -0.0000000  -0.0000003  -0.0000001   0.0000000
 Gradient time:  CPU 82.78 s  wall 45.88 s
 Geometry Optimization Parameters
   NAtoms,    NIC,     NZ,  NCons,   NDum,   NFix, NCnnct, MaxDiis
       16     116       0       0       0       0       0       0

 Cartesian Hessian Update
 Hessian updated using BFGS update


** GEOMETRY OPTIMIZATION IN DELOCALIZED INTERNAL COORDINATES **
   Searching for a Minimum

   Optimization Cycle:  39

                       Coordinates (Angstroms)
     ATOM                X               Y               Z
      1  C         2.1793258616   -0.6943151514   -0.0000467386
      2  C         2.1499230679    0.7141936035    0.0000154981
      3  C         0.9215820191    1.4486801093    0.0000785993
      4  C        -0.2468865091    0.6692639515    0.0000664072
      5  C        -0.2481243715   -0.7633885172    0.0000044155
      6  C         0.9846601370   -1.4705658451   -0.0000534056
      7  N        -1.5852445109    1.0760820751    0.0001104926
      8  C        -1.6114901587   -1.1654747407    0.0000266386
      9  C        -2.4151718680   -0.0067751948    0.0000936730
     10  H        -1.8898282449    2.0424090321    0.0001621368
     11  H        -1.9905354095   -2.1800056127   -0.0000028842
     12  H        -3.4909095092    0.0996368690    0.0001185017
     13  H         3.0882335983    1.2634777000    0.0000185303
     14  H         0.9028662085    2.5341829464    0.0001224353
     15  H         3.1420268217   -1.1989577598   -0.0000890981
     16  H         1.0126678192   -2.5558909727   -0.0000992207
   Point Group: c1    Number of degrees of freedom:    42


   Energy is   -363.205006213

 Hessian updated using BFGS update

 42 Hessian modes will be used to form the next step
  Hessian Eigenvalues:
     0.018594    0.019738    0.020011    0.020794    0.021683    0.022200
     0.022636    0.023004    0.023236    0.023608    0.023851    0.023984
     0.024127    0.157115    0.159784    0.160001    0.160037    0.160072
     0.160365    0.160888    0.214697    0.225882    0.237583    0.246724
     0.276152    0.354122    0.356947    0.357208    0.357765    0.360657
     0.364052    0.364489    0.392214    0.415993    0.428115    0.434080
     0.453305    0.469102    0.471796    0.489894    0.551796    1.030664

 Minimum search - taking simple RFO step
 Searching for Lamda that Minimizes Along All modes
 Value Taken    Lamda =  -0.00744125
 Step Taken.  Stepsize is  0.153591

                             Maximum     Tolerance    Cnvgd?
         Gradient           0.024715      0.000300      NO
         Displacement       0.059528      0.001200      NO
         Energy change     -0.007212      0.000001      NO


 New Cartesian Coordinates Obtained by Inverse Iteration

 Displacement from previous Coordinates is:  0.153621
 ----------------------------------------------------------------
             Standard Nuclear Orientation (Angstroms)
    I     Atom           X                Y                Z
 ----------------------------------------------------------------
    1      C       2.1706995908    -0.6869102427    -0.0000296943
    2      C       2.1633630463     0.7371439637     0.0000062838
    3      C       0.9329987287     1.4494033113     0.0000448846
    4      C      -0.2477075406     0.6831313266     0.0000603351
    5      C      -0.2628318620    -0.7755211656     0.0000119791
    6      C       0.9702116250    -1.4582729825    -0.0000373352
    7      N      -1.5568723401     1.0744020069     0.0001383424
    8      C      -1.6379850395    -1.1752983750     0.0000046666
    9      C      -2.4146144334    -0.0371609216     0.0000915866
   10      H      -1.8666741648     2.0383889780     0.0002164175
   11      H      -2.0110011710    -2.1918222287    -0.0000467709
   12      H      -3.4871891484     0.0906669198     0.0001175569
   13      H       3.1042288512     1.2785533780     0.0000068015
   14      H       0.9078226875     2.5356869521     0.0000897587
   15      H       3.1256273440    -1.2064060964    -0.0000651921
   16      H       1.0130187777    -2.5434323312    -0.0000836390
 ----------------------------------------------------------------
 Molecular Point Group                 C1    NOp =  1
 Largest Abelian Subgroup              C1    NOp =  1
 Nuclear Repulsion Energy =         396.57287535 hartrees
 There are       31 alpha and       31 beta electrons
 Applying Cartesian multipole field
    Component          Value
    ---------          -----
     (2,0,0)        1.00000E-11
     (0,2,0)        2.00000E-11
     (0,0,2)       -3.00000E-11
 Nucleus-field energy     =     0.0000000120 hartrees
 Requested basis set is 6-31+G(d)
 There are 59 shells and 185 basis functions
 A cutoff of  1.0D-12 yielded   1656 shell pairs
 There are     17099 function pairs
 Smallest overlap matrix eigenvalue = 1.43E-06
 Guess MOs from SCF MO coefficient file

 -----------------------------------------------------------------------
  General SCF calculation program by
  Eric Jon Sundstrom, Paul Horn, Yuezhi Mao, Dmitri Zuev, Alec White,
  David Stuck, Shaama M.S., Shane Yost, Joonho Lee, David Small,
  Daniel Levine, Susi Lehtola, Hugh Burton, Evgeny Epifanovsky,
  Bang C. Huynh
 -----------------------------------------------------------------------
 Exchange:     0.4400 Hartree-Fock + 1.0000 MN15
 Correlation:  1.0000 MN15
 Using SG-3 standard quadrature grid
 using 4 threads for integral computing
 -------------------------------------------------------
 OpenMP Integral computing Module                
 Release: version 1.0, May 2013, Q-Chem Inc. Pittsburgh 
 -------------------------------------------------------
 A restricted SCF calculation will be
 performed using DIIS
 SCF converges when DIIS error is below 1.0e-08
 ---------------------------------------
  Cycle       Energy         DIIS error
 ---------------------------------------
    1    -363.3843858132      6.32e-04  
    2    -363.3870118644      1.40e-04  
    3    -363.3870766864      1.18e-04  
    4    -363.3871336199      3.37e-05  
    5    -363.3871389577      1.35e-05  
    6    -363.3871400095      6.31e-06  
    7    -363.3871402487      1.71e-06  
    8    -363.3871402642      6.65e-07  
    9    -363.3871402667      2.26e-07  
   10    -363.3871402669      8.73e-08  
   11    -363.3871402669      1.99e-08  
   12    -363.3871402669      8.98e-09  Convergence criterion met
 ---------------------------------------
 SCF time:   CPU 225.37s  wall 116.00s 
 SCF   energy in the final basis set =     -363.3871402669
 Total energy in the final basis set =     -363.3871402669
 
 Direct TDDFT/TDA calculation will be performed
 Exchange:     0.4400 Hartree-Fock + 1.0000 MN15
 Correlation:  1.0000 MN15
 Using SG-3 standard quadrature grid
 Singlet excitation energies requested
 CIS energy converged when residual is below 10e- 6
 ---------------------------------------------------
 Iter    Rts Conv    Rts Left    Ttl Dev     Max Dev
 ---------------------------------------------------
   1         0           3      0.004736    0.001968
   2         0           3      0.001430    0.000696
   3         0           3      0.000451    0.000215
   4         0           3      0.000173    0.000088
   5         0           3      0.000123    0.000095
   6         0           3      0.000078    0.000070
   7         1           2      0.000041    0.000038
   8         2           1      0.000020    0.000019
