
Running Job 1 of 1 QfuncsHSE-HJS-V-3rd.in
qchem QfuncsHSE-HJS-V-3rd.in_110847.0 /scratch/scaparas/job_3624042/qchem110847/ 0
/cm/shared/apps/spack/cpu/opt/spack/linux-centos8-zen2/gcc-10.2.0/qchem-5.3-5qddma6gy34jvefiv7mbcb7qm253n45r/exe/qcprog.exe_s QfuncsHSE-HJS-V-3rd.in_110847.0 /scratch/scaparas/job_3624042/qchem110847/
                  Welcome to Q-Chem
     A Quantum Leap Into The Future Of Chemistry


 Q-Chem 5.3, Q-Chem, Inc., Pleasanton, CA (2020)

 License issued to: University of California, San Diego (site)

 Yihan Shao,  Zhengting Gan,  E. Epifanovsky,  A. T. B. Gilbert,  M. Wormit,  
 J. Kussmann,  A. W. Lange,  A. Behn,  Jia Deng,  Xintian Feng,  D. Ghosh,  
 M. Goldey,  P. R. Horn,  L. D. Jacobson,  I. Kaliman,  T. Kus,  A. Landau,  
 Jie Liu,  E. I. Proynov,  R. M. Richard,  R. P. Steele,  E. J. Sundstrom,  
 H. L. Woodcock III,  P. M. Zimmerman,  D. Zuev,  B. Alam,  B. Albrecht,  
 A. Aldossary,  E. Alguire,  S. A. Baeppler,  D. Barton,  Z. Benda,  
 Y. A. Bernard,  E. J. Berquist,  K. B. Bravaya,  H. Burton,  K. Carter-Fenk,  
 D. Casanova,  Chun-Min Chang,  Yunqing Chen,  A. Chien,  K. D. Closser,  
 M. P. Coons,  S. Coriani,  S. Dasgupta,  A. L. Dempwolff,  M. Diedenhofen,  
 Hainam Do,  R. G. Edgar,  Po-Tung Fang,  S. Faraji,  S. Fatehi,  
 Qingguo Feng,  J. Fosso-Tande,  J. Gayvert,  Qinghui Ge,  A. Ghysels,  
 G. Gidofalvi,  J. Gomes,  J. Gonthier,  S. Gulania,  A. Gunina,  D. Hait,  
 M. W. D. Hanson-Heine,  S. Hammes-Schiffer,  P. H. P. Harbach,  
 A. W. Hauser,  M. F. Herbst,  J. E. Herr,  E. G. Hohenstein,  Z. C. Holden,  
 S. Houck,  Kerwin Hui,  B. C. Huynh,  M. Ivanov,  T.-C. Jagau,  Hyunjun Ji,  
 B. Kaduk,  K. Khistyaev,  Jaehoon Kim,  P. Klunzinger,  K. Koh,  
 D. Kosenkov,  L. Koulias,  T. Kowalczyk,  C. M. Krauter,  A. Kunitsa,  
 Ka Un Lao,  A. Laurent,  K. V. Lawler,  Joonho Lee,  D. Lefrancois,  
 S. Lehtola,  D. S. Levine,  Yi-Pei Li,  You-Sheng Lin,  Fenglai Liu,  
 Kuan-Yu Liu,  E. Livshits,  M. Loipersberger,  A. Luenser,  P. Manohar,  
 E. Mansoor,  S. F. Manzer,  Shan-Ping Mao,  Yuezhi Mao,  N. Mardirossian,  
 A. V. Marenich,  T. Markovich,  L. A. Martinez-Martinez,  S. A. Maurer,  
 N. J. Mayhall,  S. C. McKenzie,  J.-M. Mewes,  P. Morgante,  A. F. Morrison,  
 J. W. Mullinax,  K. Nanda,  T. S. Nguyen-Beck,  R. Olivares-Amaya,  
 K. J. Oosterbaan,  J. A. Parkhill,  S. K. Paul,  F. Pavosevic,  Zheng Pei,  
 T. M. Perrine,  F. Plasser,  P. Pokhilko,  S. Prager,  A. Prociuk,  
 E. Ramos,  B. Rana,  D. R. Rehn,  F. Rob,  E. Rossomme,  M. Scheurer,  
 M. Schneider,  N. Sergueev,  S. M. Sharada,  S. Sharma,  W. Skomorowski,  
 D. W. Small,  T. Stauch,  C. J. Stein,  T. Stein,  Yu-Chuan Su,  
 S. P. Veccham,  Zhen Tao,  A. J. W. Thom,  A. Tkatchenko,  T. Tsuchimochi,  
 N. M. Tubman,  L. Vogt,  M. L. Vidal,  O. Vydrov,  M. A. Watson,  J. Wenzel,  
 M. de Wergifosse,  T. A. Wesolowski,  A. White,  J. Witte,  A. Yamada,  
 Jun Yang,  K. Yao,  S. Yeganeh,  S. R. Yost,  Zhi-Qiang You,  A. Zech,  
 Igor Ying Zhang,  Xing Zhang,  Yan Zhao,  Ying Zhu,  B. R. Brooks,  
 G. K. L. Chan,  C. J. Cramer,  M. S. Gordon,  W. J. Hehre,  A. Klamt,  
 M. W. Schmidt,  C. D. Sherrill,  D. G. Truhlar,  A. Aspuru-Guzik,  R. Baer,  
 A. T. Bell,  N. A. Besley,  Jeng-Da Chai,  A. E. DePrince, III,  
 R. A. DiStasio Jr.,  A. Dreuw,  B. D. Dunietz,  T. R. Furlani,  
 Chao-Ping Hsu,  Yousung Jung,  Jing Kong,  D. S. Lambrecht,  WanZhen Liang,  
 C. Ochsenfeld,  V. A. Rassolov,  L. V. Slipchenko,  J. E. Subotnik,  
 T. Van Voorhis,  J. M. Herbert,  A. I. Krylov,  P. M. W. Gill,  M. Head-Gordon

 Contributors to earlier versions of Q-Chem not listed above: 
 R. D. Adamson,  B. Austin,  J. Baker,  G. J. O. Beran,  K. Brandhorst,  
 S. T. Brown,  E. F. C. Byrd,  A. K. Chakraborty,  C.-L. Cheng,  
 Siu Hung Chien,  D. M. Chipman,  D. L. Crittenden,  H. Dachsel,  
 R. J. Doerksen,  A. D. Dutoi,  L. Fusti-Molnar,  W. A. Goddard III,  
 A. Golubeva-Zadorozhnaya,  S. R. Gwaltney,  G. Hawkins,  A. Heyden,  
 S. Hirata,  G. Kedziora,  F. J. Keil,  C. Kelley,  Jihan Kim,  R. A. King,  
 R. Z. Khaliullin,  P. P. Korambath,  W. Kurlancheek,  A. M. Lee,  M. S. Lee,  
 S. V. Levchenko,  Ching Yeh Lin,  D. Liotard,  R. C. Lochan,  I. Lotan,  
 P. E. Maslen,  N. Nair,  D. P. O'Neill,  D. Neuhauser,  E. Neuscamman,  
 C. M. Oana,  R. Olson,  B. Peters,  R. Peverati,  P. A. Pieniazek,  
 Y. M. Rhee,  J. Ritchie,  M. A. Rohrdanz,  E. Rosta,  N. J. Russ,  
 H. F. Schaefer III,  N. E. Schultz,  N. Shenvi,  A. C. Simmonett,  A. Sodt,  
 D. Stuck,  K. S. Thanthiriwatte,  V. Vanovschi,  Tao Wang,  A. Warshel,  
 C. F. Williams,  Q. Wu,  X. Xu,  W. Zhang

 Please cite Q-Chem as follows:
 Y. Shao et al., Mol. Phys. 113, 184-215 (2015)
 DOI: 10.1080/00268976.2014.952696

 Q-Chem 5.3.1 for Intel X86 EM64T Linux

 Parts of Q-Chem use Armadillo 9.800.1 (Horizon Scraper).
 http://arma.sourceforge.net/

 Q-Chem begins on Fri Jun 25 07:29:34 2021  

Host: 
0

     Scratch files written to /scratch/scaparas/job_3624042/qchem110847//
 Aug2920 |scratch|qcdevops|jenkins|workspace|build_RNUM    
Processing $rem in /cm/shared/apps/spack/cpu/opt/spack/linux-centos8-zen2/gcc-10.2.0/qchem-5.3-5qddma6gy34jvefiv7mbcb7qm253n45r/config/preferences:
Processing $rem in /home/scaparas/.qchemrc:

Checking the input file for inconsistencies... 	...done.

--------------------------------------------------------------
User input:
--------------------------------------------------------------
$molecule
0 1
C   -2.1510630    0.6892080    0.0000880
C   -2.1279270   -0.7158180    0.0000750
C   -0.9322970   -1.4131000   -0.0000110
C    0.2469110   -0.6702010   -0.0000420
C    0.2481930    0.7482990    0.0000000
C   -0.9794740    1.4235260    0.0000320
N    1.5617740   -1.0775920   -0.0002850
C    1.6201330    1.1629000   -0.0001570
C    2.3820130    0.0308060    0.0002480
H    1.8763150   -2.0300110    0.0004380
H    1.9921730    2.1730100   -0.0003480
H    3.4525490   -0.0824250    0.0004080
H   -3.0615940   -1.2620200    0.0000880
H   -0.9172520   -2.4953420   -0.0000730
H   -3.1042030    1.2007850    0.0000900
H   -1.0093480    2.5054210   -0.0000150
$end

$rem
BASIS  =  6-31+G*
GUI  =  2
JOB_TYPE  =  Optimization
METHOD  = HSE-HJS
SCF_CONVERGENCE  =  8
THRESH = 12
CIS_N_ROOTS  = 3
CIS_SINGLETS = true
CIS_TRIPLETS = false
CIS_STATE_DERIV = 3
MEM_STATIC = 500
MEM_TOTAL = 3000
$end
--------------------------------------------------------------
 ----------------------------------------------------------------
             Standard Nuclear Orientation (Angstroms)
    I     Atom           X                Y                Z
 ----------------------------------------------------------------
    1      C       2.1510629040    -0.6892079969     0.0000583065
    2      C       2.1279268385     0.7158180020     0.0000481775
    3      C       0.9322968051     1.4130999466    -0.0000206639
    4      C      -0.2469111607     0.6702008918    -0.0000373513
    5      C      -0.2481930942    -0.7482991083     0.0000020775
    6      C       0.9794739374    -1.4235260513     0.0000165335
    7      N      -1.5617741827     1.0775918311    -0.0002621374
    8      C      -1.6201330769    -1.1629001718    -0.0001374500
    9      C      -2.3820131241    -0.0308062080     0.0002797387
   10      H      -1.8763152174     2.0300108152     0.0004667797
   11      H      -1.9921730325    -2.1730101887    -0.0003253498
   12      H      -3.4525491271     0.0824247420     0.0004541695
   13      H       3.0615938132     1.2620200454     0.0000497686
   14      H       0.9172517540     2.4953419460    -0.0000804893
   15      H       3.1042029277    -1.2007849526     0.0000467087
   16      H       1.0093479871    -2.5054210498    -0.0000328375
 ----------------------------------------------------------------
 Molecular Point Group                 C1    NOp =  1
 Largest Abelian Subgroup              C1    NOp =  1
 Nuclear Repulsion Energy =         401.33686680 hartrees
 There are       31 alpha and       31 beta electrons
 Requested basis set is 6-31+G(d)
 There are 59 shells and 185 basis functions

 Total QAlloc Memory Limit   3000 MB
 Mega-Array Size       489 MB
 MEM_STATIC part       500 MB
 A cutoff of  1.0D-12 yielded   1657 shell pairs
 There are     17105 function pairs
 Smallest overlap matrix eigenvalue = 1.26E-06

 Scale SEOQF with 1.000000e-01/1.000000e-01/1.000000e-01

 Standard Electronic Orientation quadrupole field applied
 Nucleus-field energy     =     0.0000000117 hartrees
 Guess from superposition of atomic densities
 Warning:  Energy on first SCF cycle will be non-variational
 SAD guess density has 62.000000 electrons

 -----------------------------------------------------------------------
  General SCF calculation program by
  Eric Jon Sundstrom, Paul Horn, Yuezhi Mao, Dmitri Zuev, Alec White,
  David Stuck, Shaama M.S., Shane Yost, Joonho Lee, David Small,
  Daniel Levine, Susi Lehtola, Hugh Burton, Evgeny Epifanovsky,
  Bang C. Huynh
 -----------------------------------------------------------------------
 Exchange:     0.2500 Hartree-Fock + 1.0000 PBE + -0.2500 wPBE + LR-HF
 Correlation:  1.0000 PBE
 Using SG-1 standard quadrature grid
 using 4 threads for integral computing
 -------------------------------------------------------
 OpenMP Integral computing Module                
 Release: version 1.0, May 2013, Q-Chem Inc. Pittsburgh 
 -------------------------------------------------------
 using 4 threads for integral computing
 -------------------------------------------------------
 OpenMP Integral computing Module                
 Release: version 1.0, May 2013, Q-Chem Inc. Pittsburgh 
 -------------------------------------------------------
 A restricted SCF calculation will be
 performed using DIIS
 SCF converges when DIIS error is below 1.0e-08
 ---------------------------------------
  Cycle       Energy         DIIS error
 ---------------------------------------
    1    -365.7856403989      5.56e-02  
    2    -363.2742167500      4.94e-03  
    3    -363.2108884892      6.10e-03  
    4    -363.3846176487      1.60e-03  
    5    -363.3958392837      4.16e-04  
    6    -363.3965446321      1.41e-04  
    7    -363.3966251016      5.20e-05  
    8    -363.3966371291      1.22e-05  
    9    -363.3966377547      1.77e-06  
   10    -363.3966377646      1.04e-06  
   11    -363.3966377694      2.23e-07  
   12    -363.3966377696      9.58e-08  
   13    -363.3966377697      1.73e-08  
   14    -363.3966377697      7.30e-09  Convergence criterion met
 ---------------------------------------
 SCF time:   CPU 64.05s  wall 16.00s 
 SCF   energy in the final basis set =     -363.3966377697
 Total energy in the final basis set =     -363.3966377697
 
 Direct TDDFT/TDA calculation will be performed
 Exchange:     0.2500 Hartree-Fock + 1.0000 PBE + -0.2500 wPBE + LR-HF
 Correlation:  1.0000 PBE
 Using SG-1 standard quadrature grid
 Singlet excitation energies requested
 CIS energy converged when residual is below 10e- 6
 ---------------------------------------------------
 Iter    Rts Conv    Rts Left    Ttl Dev     Max Dev
 ---------------------------------------------------
   1         0           3      0.003679    0.001817
   2         0           3      0.003056    0.001932
   3         0           3      0.001927    0.001648
   4         0           3      0.000992    0.000908
   5         0           3      0.000198    0.000168
   6         1           2      0.000052    0.000042
   7         1           2      0.000014    0.000012
   8         2           1      0.000003    0.000003
   9         3           0      0.000001    0.000001    Roots Converged
 ---------------------------------------------------
 
 ---------------------------------------------------
         TDDFT/TDA Excitation Energies              
 ---------------------------------------------------

 Excited state   1: excitation energy (eV) =    5.0022
 Total energy for state  1:                  -363.21280894 au
    Multiplicity: Singlet
    Trans. Mom.: -0.4571 X   0.6617 Y   0.0004 Z
    Strength   :     0.0792562562
    D(   30) --> V(    1) amplitude =  0.3369
    D(   30) --> V(    3) amplitude =  0.2450
    D(   31) --> V(    1) amplitude =  0.8549

 Excited state   2: excitation energy (eV) =    5.0633
 Total energy for state  2:                  -363.21056317 au
    Multiplicity: Singlet
    Trans. Mom.:  0.5971 X  -0.0319 Y  -0.0007 Z
    Strength   :     0.0443517088
    D(   30) --> V(    1) amplitude =  0.7081
    D(   31) --> V(    1) amplitude = -0.3226
    D(   31) --> V(    3) amplitude = -0.6031

 Excited state   3: excitation energy (eV) =    5.0881
 Total energy for state  3:                  -363.20965415 au
    Multiplicity: Singlet
    Trans. Mom.: -0.0040 X   0.0017 Y  -0.1340 Z
    Strength   :     0.0022409909
    D(   31) --> V(    2) amplitude =  0.9959
 
 ---------------------------------------------------
 Calculating Relaxed Density
 ---------------------------------------------------
 Iter    Rts Conv    Rts Left    Ttl Dev     Max Dev
 ---------------------------------------------------
   1         0           3      0.001613    0.000824
   2         0           3      0.000608    0.000273
   3         0           3      0.000131    0.000060
   4         0           3      0.000037    0.000020
   5         0           3      0.000006    0.000003
   6         3           0      0.000000    0.000000    Roots Converged
 ---------------------------------------------------
  SETman timing summary (seconds)
  CPU time               205.37s
  System time              0.00s
  Wall time               51.77s
 
 --------------------------------------------------------------
 
                    Orbital Energies (a.u.)
 --------------------------------------------------------------
 
 Alpha MOs
 -- Occupied --
-14.4360 -10.2566 -10.2548 -10.2244 -10.2206 -10.2190 -10.2189 -10.2138
-10.2116  -0.9987  -0.8525  -0.7943  -0.7456  -0.7269  -0.6311  -0.6011
 -0.5874  -0.5443  -0.4856  -0.4731  -0.4389  -0.4300  -0.4245  -0.4117
 -0.3918  -0.3541  -0.3347  -0.3333  -0.2780  -0.2210  -0.2040
 -- Virtual --
 -0.0253  -0.0051   0.0113   0.0138   0.0197   0.0352   0.0365   0.0397
  0.0558   0.0575   0.0644   0.0649   0.0822   0.0856   0.1045   0.1060
  0.1086   0.1231   0.1322   0.1358   0.1526   0.1551   0.1640   0.1647
  0.1700   0.1792   0.1846   0.1860   0.1951   0.1975   0.1991   0.2007
  0.2170   0.2222   0.2294   0.2334   0.2362   0.2443   0.2547   0.2589
  0.2695   0.2721   0.2766   0.2945   0.2995   0.3072   0.3136   0.3303
  0.3491   0.3654   0.3773   0.3983   0.4337   0.4488   0.5131   0.5814
  0.6267   0.6756   0.6769   0.7024   0.7180   0.7241   0.7320   0.7403
  0.7449   0.7566   0.7606   0.7813   0.7960   0.8033   0.8170   0.8570
  0.8972   0.9045   0.9160   0.9389   0.9464   0.9551   0.9638   0.9865
  1.0063   1.0333   1.0496   1.0666   1.0951   1.1138   1.1172   1.1718
  1.1802   1.2057   1.2251   1.2303   1.2532   1.3163   1.3196   1.3369
  1.3702   1.4109   1.4184   1.4540   1.4569   1.4639   1.4950   1.5007
  1.5407   1.5910   1.6511   1.7877   1.8464   1.8860   1.8919   1.9248
  1.9459   1.9984   2.0009   2.0059   2.0667   2.1036   2.1455   2.1751
  2.1765   2.2023   2.2506   2.2626   2.2679   2.2896   2.3187   2.3839
  2.4117   2.4512   2.5536   2.5623   2.6427   2.6644   2.6744   2.7067
  2.7432   2.8169   2.8541   2.8656   2.9622   2.9873   3.1211   3.2520
  3.4578   4.1669   4.2787   4.3085   4.3430   4.3790   4.4143   4.4977
  4.5369   4.8067
 --------------------------------------------------------------
 
          Ground-State Mulliken Net Atomic Charges

     Atom                 Charge (a.u.)
  ----------------------------------------
      1 C                     0.019864
      2 C                    -0.536727
      3 C                    -0.128162
      4 C                    -1.172316
      5 C                     1.578420
      6 C                    -0.796951
      7 N                    -0.467952
      8 C                     0.035055
      9 C                    -0.227594
     10 H                     0.436055
     11 H                     0.217814
     12 H                     0.216320
     13 H                     0.204965
     14 H                     0.206216
     15 H                     0.203539
     16 H                     0.211452
  ----------------------------------------
  Sum of atomic charges =     0.000000

 -----------------------------------------------------------------
                    Cartesian Multipole Moments
 -----------------------------------------------------------------
    Charge (ESU x 10^10)
                -0.0000
    Dipole Moment (Debye)
         X      -1.5213      Y       1.5685      Z       0.0010
       Tot       2.1850
    Quadrupole Moments (Debye-Ang)
        XX     -44.8004     XY      -3.1813     YY     -43.9622
        XZ      -0.0032     YZ       0.0033     ZZ     -58.6755
    Octopole Moments (Debye-Ang^2)
       XXX     -14.5868    XXY       8.2062    XYY      -7.9834
       YYY      10.4165    XXZ       0.0076    XYZ      -0.0067
       YYZ       0.0020    XZZ      -2.0124    YZZ       2.0014
       ZZZ      -0.0009
    Hexadecapole Moments (Debye-Ang^3)
      XXXX    -803.5636   XXXY     -21.5660   XXYY    -193.3863
      XYYY     -19.5381   YYYY    -363.6873   XXXZ      -0.0241
      XXYZ       0.0131   XYYZ      -0.0071   YYYZ       0.0143
      XXZZ    -187.7091   XYZZ      -3.9234   YYZZ     -92.7433
      XZZZ      -0.0010   YZZZ       0.0029   ZZZZ     -71.6282
 -----------------------------------------------------------------
 Calculating analytic gradient of the CIS energy
 CIS relaxed dipole moment
            1
    1   2.3211812
    2  -2.6094094
    3   0.0035241
	Magnitude:	 3.492 au	 8.877 Debye
 CIS 3 State Energy is -363.2096541466
 Gradient of the state energy (including CIS Excitation Energy)
            1           2           3           4           5           6
    1  -0.0120205  -0.0150619   0.0292959  -0.0072737   0.0080815   0.0072608
    2  -0.0148557   0.0255085  -0.0059553  -0.0001678  -0.0024003   0.0084294
    3  -0.0000222   0.0000189   0.0000306  -0.0000586   0.0000641   0.0000533
            7           8           9          10          11          12
    1   0.0195250  -0.0399740  -0.0094769   0.0144511   0.0021312   0.0065787
    2   0.0677322   0.0223608  -0.0698543  -0.0330528   0.0051751  -0.0040204
    3  -0.0001109  -0.0000625   0.0001102   0.0000266  -0.0000064  -0.0000053
           13          14          15          16
    1  -0.0026027   0.0021084  -0.0026935  -0.0003295
    2  -0.0015576  -0.0020229   0.0016158   0.0030652
    3   0.0000006  -0.0000130  -0.0000122  -0.0000131
 Gradient time:  CPU 45.88 s  wall 11.56 s
 Geometry Optimization Parameters
   NAtoms,    NIC,     NZ,  NCons,   NDum,   NFix, NCnnct, MaxDiis
       16     116       0       0       0       0       0       0


** GEOMETRY OPTIMIZATION IN DELOCALIZED INTERNAL COORDINATES **
   Searching for a Minimum

   Optimization Cycle:   1

                       Coordinates (Angstroms)
     ATOM                X               Y               Z
      1  C         2.1510629040   -0.6892079969    0.0000583065
      2  C         2.1279268385    0.7158180020    0.0000481775
      3  C         0.9322968051    1.4130999466   -0.0000206639
      4  C        -0.2469111607    0.6702008918   -0.0000373513
      5  C        -0.2481930942   -0.7482991083    0.0000020775
      6  C         0.9794739374   -1.4235260513    0.0000165335
      7  N        -1.5617741827    1.0775918311   -0.0002621374
      8  C        -1.6201330769   -1.1629001718   -0.0001374500
      9  C        -2.3820131241   -0.0308062080    0.0002797387
     10  H        -1.8763152174    2.0300108152    0.0004667797
     11  H        -1.9921730325   -2.1730101887   -0.0003253498
     12  H        -3.4525491271    0.0824247420    0.0004541695
     13  H         3.0615938132    1.2620200454    0.0000497686
     14  H         0.9172517540    2.4953419460   -0.0000804893
     15  H         3.1042029277   -1.2007849526    0.0000467087
     16  H         1.0093479871   -2.5054210498   -0.0000328375
   Point Group: c1    Number of degrees of freedom:    42


   Energy is   -363.209654147


 Attempting to generate delocalized internal coordinates
 Initial Hessian constructed with Jon Baker's OPTIMIZE code

 42 Hessian modes will be used to form the next step
  Hessian Eigenvalues:
     0.018594    0.019738    0.020011    0.020794    0.021683    0.022200
     0.022636    0.023004    0.023236    0.023608    0.023851    0.023984
     0.024127    0.160000    0.160000    0.160000    0.160000    0.160000
     0.160000    0.160000    0.220000    0.221879    0.226618    0.240111
     0.246509    0.357123    0.357170    0.357835    0.357899    0.364196
     0.364272    0.370088    0.384319    0.426334    0.434649    0.457693
     0.466917    0.471622    0.474685    0.475669    0.481247    0.509555

 Minimum search - taking simple RFO step
 Searching for Lamda that Minimizes Along All modes
 Value Taken    Lamda =  -0.01481493
 Step Taken.  Stepsize is  0.178950

                             Maximum     Tolerance    Cnvgd?
         Gradient           0.038659      0.000300      NO
         Displacement       0.094125      0.001200      NO
         Energy change     *********      0.000001      NO


 New Cartesian Coordinates Obtained by Inverse Iteration

 Displacement from previous Coordinates is:  0.250070
 ----------------------------------------------------------------
             Standard Nuclear Orientation (Angstroms)
    I     Atom           X                Y                Z
 ----------------------------------------------------------------
    1      C       2.1763217723    -0.6992515854    -0.0000650462
    2      C       2.1273221874     0.6958831703    -0.0000817054
    3      C       0.9037561578     1.4014232187     0.0000818561
    4      C      -0.2599159991     0.6595335908     0.0002910048
    5      C      -0.2346597969    -0.7560133721     0.0000139266
    6      C       0.9952947081    -1.4420130177    -0.0002375181
    7      N      -1.5809751760     1.0709153734     0.0000713135
    8      C      -1.5919525697    -1.1599768429     0.0002643093
    9      C      -2.3760125294     0.0075952855    -0.0000114489
   10      H      -1.9226419636     2.0553949082     0.0002720109
   11      H      -1.9705212606    -2.1760007860     0.0001768570
   12      H      -3.4534258036     0.1457180692    -0.0002043508
   13      H       3.0580435317     1.2554977586    -0.0000855787
   14      H       0.8698192447     2.4861636790     0.0002122793
   15      H       3.1381151118    -1.2040231557     0.0000145449
   16      H       1.0245273365    -2.5282938013    -0.0001864732
 ----------------------------------------------------------------
 Molecular Point Group                 C1    NOp =  1
 Largest Abelian Subgroup              C1    NOp =  1
 Nuclear Repulsion Energy =         401.01024805 hartrees
 There are       31 alpha and       31 beta electrons
 Applying Cartesian multipole field
    Component          Value
    ---------          -----
     (2,0,0)        1.00000E-11
     (0,2,0)        2.00000E-11
     (0,0,2)       -3.00000E-11
 Nucleus-field energy     =     0.0000000117 hartrees
 Requested basis set is 6-31+G(d)
 There are 59 shells and 185 basis functions
 A cutoff of  1.0D-12 yielded   1658 shell pairs
 There are     17111 function pairs
 Smallest overlap matrix eigenvalue = 1.18E-06
 Guess MOs from SCF MO coefficient file

 -----------------------------------------------------------------------
  General SCF calculation program by
  Eric Jon Sundstrom, Paul Horn, Yuezhi Mao, Dmitri Zuev, Alec White,
  David Stuck, Shaama M.S., Shane Yost, Joonho Lee, David Small,
  Daniel Levine, Susi Lehtola, Hugh Burton, Evgeny Epifanovsky,
  Bang C. Huynh
 -----------------------------------------------------------------------
 Exchange:     0.2500 Hartree-Fock + 1.0000 PBE + -0.2500 wPBE + LR-HF
 Correlation:  1.0000 PBE
 Using SG-1 standard quadrature grid
 using 4 threads for integral computing
 -------------------------------------------------------
 OpenMP Integral computing Module                
 Release: version 1.0, May 2013, Q-Chem Inc. Pittsburgh 
 -------------------------------------------------------
 using 4 threads for integral computing
 -------------------------------------------------------
 OpenMP Integral computing Module                
 Release: version 1.0, May 2013, Q-Chem Inc. Pittsburgh 
 -------------------------------------------------------
 A restricted SCF calculation will be
 performed using DIIS
 SCF converges when DIIS error is below 1.0e-08
 ---------------------------------------
  Cycle       Energy         DIIS error
 ---------------------------------------
    1    -363.3867454443      8.57e-04  
    2    -363.3907357130      2.35e-04  
    3    -363.3907145357      2.38e-04  
    4    -363.3909177267      8.84e-05  
    5    -363.3909489914      3.01e-05  
    6    -363.3909532132      6.10e-06  
    7    -363.3909533736      2.31e-06  
    8    -363.3909533955      9.38e-07  
    9    -363.3909533996      1.95e-07  
   10    -363.3909533997      9.88e-08  
   11    -363.3909533997      2.34e-08  
   12    -363.3909533997      4.69e-09  Convergence criterion met
 ---------------------------------------
 SCF time:   CPU 56.48s  wall 15.00s 
 SCF   energy in the final basis set =     -363.3909533997
 Total energy in the final basis set =     -363.3909533997
 
 Direct TDDFT/TDA calculation will be performed
 Exchange:     0.2500 Hartree-Fock + 1.0000 PBE + -0.2500 wPBE + LR-HF
 Correlation:  1.0000 PBE
 Using SG-1 standard quadrature grid
 Singlet excitation energies requested
 CIS energy converged when residual is below 10e- 6
 ---------------------------------------------------
 Iter    Rts Conv    Rts Left    Ttl Dev     Max Dev
 ---------------------------------------------------
   1         0           3      0.003722    0.001844
   2         0           3      0.002605    0.001874
   3         0           3      0.002044    0.001798
   4         0           3      0.001006    0.000874
   5         1           2      0.000221    0.000179
   6         1           2      0.000069    0.000057
   7         1           2      0.000019    0.000016
   8         2           1      0.000003    0.000002
   9         3           0      0.000001    0.000001    Roots Converged
 ---------------------------------------------------
 
 ---------------------------------------------------
         TDDFT/TDA Excitation Energies              
 ---------------------------------------------------

 Excited state   1: excitation energy (eV) =    4.6861
 Total energy for state  1:                  -363.21874405 au
    Multiplicity: Singlet
    Trans. Mom.: -0.0014 X   0.0013 Y  -0.1281 Z
    Strength   :     0.0018857501
    D(   31) --> V(    2) amplitude =  0.9968

 Excited state   2: excitation energy (eV) =    4.7296
 Total energy for state  2:                  -363.21714382 au
    Multiplicity: Singlet
    Trans. Mom.: -0.8522 X   0.6505 Y   0.0003 Z
    Strength   :     0.1331887306
    D(   30) --> V(    3) amplitude = -0.2160
    D(   31) --> V(    1) amplitude =  0.9140

 Excited state   3: excitation energy (eV) =    5.0278
 Total energy for state  3:                  -363.20618663 au
    Multiplicity: Singlet
    Trans. Mom.: -0.0539 X   0.2139 Y   0.0000 Z
    Strength   :     0.0059959938
    D(   30) --> V(    1) amplitude =  0.7250
    D(   31) --> V(    3) amplitude =  0.6539
 
 ---------------------------------------------------
 Calculating Relaxed Density
 ---------------------------------------------------
 Iter    Rts Conv    Rts Left    Ttl Dev     Max Dev
 ---------------------------------------------------
   1         0           3      0.001752    0.000916
   2         0           3      0.000649    0.000297
   3         0           3      0.000154    0.000067
   4         0           3      0.000041    0.000020
   5         1           2      0.000006    0.000003
   6         2           1      0.000001    0.000001
   7         3           0      0.000000    0.000000    Roots Converged
 ---------------------------------------------------
  SETman timing summary (seconds)
  CPU time               212.93s
  System time              0.00s
  Wall time               53.66s
 
 --------------------------------------------------------------
 
                    Orbital Energies (a.u.)
 --------------------------------------------------------------
 
 Alpha MOs
 -- Occupied --
-14.4432 -10.2587 -10.2538 -10.2267 -10.2212 -10.2207 -10.2201 -10.2167
-10.2111  -1.0091  -0.8526  -0.7888  -0.7512  -0.7179  -0.6338  -0.5999
 -0.5859  -0.5438  -0.4842  -0.4730  -0.4402  -0.4309  -0.4301  -0.4037
 -0.3903  -0.3539  -0.3364  -0.3335  -0.2746  -0.2277  -0.1943
 -- Virtual --
 -0.0283  -0.0100   0.0120   0.0134   0.0202   0.0349   0.0365   0.0395
  0.0551   0.0574   0.0625   0.0645   0.0828   0.0847   0.1040   0.1059
  0.1072   0.1232   0.1316   0.1326   0.1495   0.1548   0.1623   0.1643
  0.1699   0.1782   0.1838   0.1859   0.1935   0.1986   0.1994   0.2000
  0.2161   0.2212   0.2312   0.2313   0.2344   0.2448   0.2509   0.2587
  0.2694   0.2703   0.2775   0.2943   0.2956   0.3045   0.3154   0.3330
  0.3522   0.3597   0.3745   0.3943   0.4295   0.4485   0.5157   0.5792
  0.6226   0.6757   0.6775   0.7008   0.7237   0.7253   0.7326   0.7390
  0.7423   0.7584   0.7673   0.7807   0.7955   0.8002   0.8169   0.8573
  0.8908   0.8997   0.9112   0.9423   0.9463   0.9568   0.9624   0.9889
  1.0054   1.0261   1.0431   1.0486   1.0917   1.1114   1.1168   1.1768
  1.1774   1.2066   1.2230   1.2296   1.2479   1.3110   1.3262   1.3410
  1.3676   1.4103   1.4177   1.4539   1.4592   1.4652   1.4936   1.4997
  1.5480   1.5910   1.6522   1.7704   1.8374   1.8883   1.8970   1.9147
  1.9459   1.9900   1.9941   2.0060   2.0614   2.0952   2.1462   2.1686
  2.1772   2.1835   2.2479   2.2571   2.2695   2.3046   2.3215   2.3793
  2.4192   2.4592   2.5456   2.5681   2.6435   2.6549   2.6697   2.6970
  2.7351   2.8150   2.8487   2.8611   2.9555   2.9877   3.1057   3.2569
  3.4465   4.1731   4.2730   4.3029   4.3346   4.3787   4.4148   4.4976
  4.5368   4.8065
 --------------------------------------------------------------
 
          Ground-State Mulliken Net Atomic Charges

     Atom                 Charge (a.u.)
  ----------------------------------------
      1 C                    -0.002333
      2 C                    -0.526303
      3 C                    -0.183492
      4 C                    -1.200804
      5 C                     1.628433
      6 C                    -0.696305
      7 N                    -0.416165
      8 C                    -0.087465
      9 C                    -0.210783
     10 H                     0.436711
     11 H                     0.214862
     12 H                     0.215984
     13 H                     0.203562
     14 H                     0.205025
     15 H                     0.206278
     16 H                     0.212797
  ----------------------------------------
  Sum of atomic charges =     0.000000

 -----------------------------------------------------------------
                    Cartesian Multipole Moments
 -----------------------------------------------------------------
    Charge (ESU x 10^10)
                -0.0000
    Dipole Moment (Debye)
         X      -1.6053      Y       1.8154      Z       0.0003
       Tot       2.4234
    Quadrupole Moments (Debye-Ang)
        XX     -44.7287     XY      -4.2404     YY     -43.9766
        XZ       0.0007     YZ       0.0012     ZZ     -58.8630
    Octopole Moments (Debye-Ang^2)
       XXX     -14.9502    XXY       9.8763    XYY      -8.6840
       YYY      11.8906    XXZ      -0.0031    XYZ      -0.0022
       YYZ       0.0011    XZZ      -2.1764    YZZ       2.4719
       ZZZ      -0.0063
    Hexadecapole Moments (Debye-Ang^3)
      XXXX    -805.4061   XXXY     -23.5981   XXYY    -193.2427
      XYYY     -17.4185   YYYY    -364.0330   XXXZ       0.0312
      XXYZ      -0.0016   XYYZ       0.0030   YYYZ      -0.0018
      XXZZ    -188.9565   XYZZ      -2.3007   YYZZ     -93.4498
      XZZZ       0.0224   YZZZ      -0.0087   ZZZZ     -72.3432
 -----------------------------------------------------------------
 Calculating analytic gradient of the CIS energy
 CIS relaxed dipole moment
            1
    1  -0.9034829
    2   0.5323518
    3   0.0001855
	Magnitude:	 1.049 au	 2.665 Debye
 CIS 3 State Energy is -363.2061866259
 Gradient of the state energy (including CIS Excitation Energy)
            1           2           3           4           5           6
    1  -0.0143741  -0.0103513  -0.0104481   0.0029407   0.0053030   0.0200186
    2   0.0135200  -0.0326811  -0.0135531  -0.0292603   0.0273838   0.0151896
    3   0.0000055  -0.0000032  -0.0000073   0.0000236  -0.0000241  -0.0000196
            7           8           9          10          11          12
    1  -0.0284626   0.0165052   0.0345810  -0.0127000   0.0006177  -0.0026989
    2  -0.0549502  -0.0012691   0.0490347   0.0253960  -0.0017585   0.0050881
    3  -0.0000069   0.0000425  -0.0000214   0.0000048  -0.0000009  -0.0000043
           13          14          15          16
    1   0.0004524  -0.0029401   0.0004173   0.0011392
    2  -0.0009212  -0.0012580   0.0002863  -0.0002471
    3   0.0000001   0.0000033   0.0000013   0.0000066
 Gradient time:  CPU 47.06 s  wall 11.86 s
 Geometry Optimization Parameters
   NAtoms,    NIC,     NZ,  NCons,   NDum,   NFix, NCnnct, MaxDiis
       16     116       0       0       0       0       0       0

 Cartesian Hessian Update
 Hessian updated using BFGS update


** GEOMETRY OPTIMIZATION IN DELOCALIZED INTERNAL COORDINATES **
   Searching for a Minimum

   Optimization Cycle:   2

                       Coordinates (Angstroms)
     ATOM                X               Y               Z
      1  C         2.1763217723   -0.6992515854   -0.0000650462
      2  C         2.1273221874    0.6958831703   -0.0000817054
      3  C         0.9037561578    1.4014232187    0.0000818561
      4  C        -0.2599159991    0.6595335908    0.0002910048
      5  C        -0.2346597969   -0.7560133721    0.0000139266
      6  C         0.9952947081   -1.4420130177   -0.0002375181
      7  N        -1.5809751760    1.0709153734    0.0000713135
      8  C        -1.5919525697   -1.1599768429    0.0002643093
      9  C        -2.3760125294    0.0075952855   -0.0000114489
     10  H        -1.9226419636    2.0553949082    0.0002720109
     11  H        -1.9705212606   -2.1760007860    0.0001768570
     12  H        -3.4534258036    0.1457180692   -0.0002043508
     13  H         3.0580435317    1.2554977586   -0.0000855787
     14  H         0.8698192447    2.4861636790    0.0002122793
     15  H         3.1381151118   -1.2040231557    0.0000145449
     16  H         1.0245273365   -2.5282938013   -0.0001864732
   Point Group: c1    Number of degrees of freedom:    42


   Energy is   -363.206186626

 Hessian updated using BFGS update

 40 Hessian modes will be used to form the next step
  Hessian Eigenvalues:
     0.018594    0.019738    0.020011    0.020794    0.021683    0.022200
     0.022636    0.023004    0.023236    0.023608    0.023851    0.023984
     0.024127    0.159738    0.160000    0.160000    0.160000    0.162265
     0.219148    0.221209    0.226605    0.244619    0.248282    0.340701
     0.357159    0.357465    0.357867    0.360283    0.364253    0.369986
     0.375257    0.385703    0.426899    0.447282    0.459818    0.468202
     0.473393    0.476309    0.496358    1.122295

 Minimum search - taking simple RFO step
 Searching for Lamda that Minimizes Along All modes
 Value Taken    Lamda =  -0.00840248
 Step Taken.  Stepsize is  0.100821

                             Maximum     Tolerance    Cnvgd?
         Gradient           0.044916      0.000300      NO
         Displacement       0.052457      0.001200      NO
         Energy change      0.003468      0.000001      NO


 New Cartesian Coordinates Obtained by Inverse Iteration

 Displacement from previous Coordinates is:  0.158502
 ----------------------------------------------------------------
             Standard Nuclear Orientation (Angstroms)
    I     Atom           X                Y                Z
 ----------------------------------------------------------------
    1      C       2.1798953382    -0.6985655410    -0.0000717372
    2      C       2.1477186523     0.7158090724    -0.0001274738
    3      C       0.9175924947     1.4265361012     0.0000846230
    4      C      -0.2521420938     0.6734744100     0.0003596978
    5      C      -0.2461974950    -0.7638783151     0.0000336045
    6      C       0.9827376115    -1.4522944569    -0.0002485059
    7      N      -1.5764155156     1.0700891241     0.0001980455
    8      C      -1.6059143070    -1.1732478211     0.0002808356
    9      C      -2.3927892289    -0.0049648795    -0.0000529703
   10      H      -1.9098967320     2.0488600177     0.0002216746
   11      H      -1.9869231960    -2.1891918418     0.0001871536
   12      H      -3.4710306825     0.1242402266    -0.0002879125
   13      H       3.0810828985     1.2732273794    -0.0001465354
   14      H       0.8893469377     2.5131228199     0.0002505217
   15      H       3.1385899147    -1.2111249610     0.0000392868
   16      H       1.0074403545    -2.5395388423    -0.0001943267
 ----------------------------------------------------------------
 Molecular Point Group                 C1    NOp =  1
 Largest Abelian Subgroup              C1    NOp =  1
 Nuclear Repulsion Energy =         398.40604141 hartrees
 There are       31 alpha and       31 beta electrons
 Applying Cartesian multipole field
    Component          Value
    ---------          -----
     (2,0,0)        1.00000E-11
     (0,2,0)        2.00000E-11
     (0,0,2)       -3.00000E-11
 Nucleus-field energy     =     0.0000000119 hartrees
 Requested basis set is 6-31+G(d)
 There are 59 shells and 185 basis functions
 A cutoff of  1.0D-12 yielded   1657 shell pairs
 There are     17105 function pairs
 Smallest overlap matrix eigenvalue = 1.31E-06
 Guess MOs from SCF MO coefficient file

 -----------------------------------------------------------------------
  General SCF calculation program by
  Eric Jon Sundstrom, Paul Horn, Yuezhi Mao, Dmitri Zuev, Alec White,
  David Stuck, Shaama M.S., Shane Yost, Joonho Lee, David Small,
  Daniel Levine, Susi Lehtola, Hugh Burton, Evgeny Epifanovsky,
  Bang C. Huynh
 -----------------------------------------------------------------------
 Exchange:     0.2500 Hartree-Fock + 1.0000 PBE + -0.2500 wPBE + LR-HF
 Correlation:  1.0000 PBE
 Using SG-1 standard quadrature grid
 using 4 threads for integral computing
 -------------------------------------------------------
 OpenMP Integral computing Module                
 Release: version 1.0, May 2013, Q-Chem Inc. Pittsburgh 
 -------------------------------------------------------
 using 4 threads for integral computing
 -------------------------------------------------------
 OpenMP Integral computing Module                
 Release: version 1.0, May 2013, Q-Chem Inc. Pittsburgh 
 -------------------------------------------------------
 A restricted SCF calculation will be
 performed using DIIS
 SCF converges when DIIS error is below 1.0e-08
 ---------------------------------------
  Cycle       Energy         DIIS error
 ---------------------------------------
    1    -363.3907511127      6.42e-04  
    2    -363.3924230573      1.65e-04  
    3    -363.3923969902      1.77e-04  
    4    -363.3925336914      4.00e-05  
    5    -363.3925408075      1.31e-05  
    6    -363.3925415508      4.84e-06  
    7    -363.3925416561      8.76e-07  
    8    -363.3925416582      5.61e-07  
    9    -363.3925416595      5.69e-08  
   10    -363.3925416595      4.67e-08  
   11    -363.3925416595      8.47e-09  Convergence criterion met
 ---------------------------------------
 SCF time:   CPU 49.26s  wall 13.00s 
 SCF   energy in the final basis set =     -363.3925416595
 Total energy in the final basis set =     -363.3925416595
 
 Direct TDDFT/TDA calculation will be performed
 Exchange:     0.2500 Hartree-Fock + 1.0000 PBE + -0.2500 wPBE + LR-HF
 Correlation:  1.0000 PBE
 Using SG-1 standard quadrature grid
 Singlet excitation energies requested
 CIS energy converged when residual is below 10e- 6
 ---------------------------------------------------
 Iter    Rts Conv    Rts Left    Ttl Dev     Max Dev
 ---------------------------------------------------
   1         0           3      0.003732    0.001859
   2         0           3      0.002703    0.001759
   3         0           3      0.001620    0.001415
   4         0           3      0.001235    0.001130
   5         1           2      0.000254    0.000210
   6         1           2      0.000061    0.000050
   7         1           2      0.000017    0.000014
   8         2           1      0.000004    0.000003
   9         3           0      0.000001    0.000001    Roots Converged
 ---------------------------------------------------
 
 ---------------------------------------------------
         TDDFT/TDA Excitation Energies              
 ---------------------------------------------------

 Excited state   1: excitation energy (eV) =    4.7373
 Total energy for state  1:                  -363.21844935 au
    Multiplicity: Singlet
    Trans. Mom.:  0.8038 X  -0.6636 Y   0.0003 Z
    Strength   :     0.1260938842
    D(   30) --> V(    3) amplitude = -0.2364
    D(   31) --> V(    1) amplitude =  0.9127

 Excited state   2: excitation energy (eV) =    4.7945
 Total energy for state  2:                  -363.21634701 au
    Multiplicity: Singlet
    Trans. Mom.: -0.0022 X   0.0019 Y   0.1354 Z
    Strength   :     0.0021543499
    D(   31) --> V(    2) amplitude =  0.9967

 Excited state   3: excitation energy (eV) =    4.9029
 Total energy for state  3:                  -363.21236323 au
    Multiplicity: Singlet
    Trans. Mom.:  0.1058 X   0.2347 Y  -0.0001 Z
    Strength   :     0.0079639073
    D(   30) --> V(    1) amplitude =  0.7497
    D(   31) --> V(    3) amplitude =  0.6335
 
 ---------------------------------------------------
 Calculating Relaxed Density
 ---------------------------------------------------
 Iter    Rts Conv    Rts Left    Ttl Dev     Max Dev
 ---------------------------------------------------
   1         0           3      0.001770    0.000969
   2         0           3      0.000648    0.000288
   3         0           3      0.000155    0.000069
   4         0           3      0.000043    0.000020
   5         1           2      0.000006    0.000003
   6         2           1      0.000001    0.000001
   7         3           0      0.000000    0.000000    Roots Converged
 ---------------------------------------------------
  SETman timing summary (seconds)
  CPU time               160.49s
  System time              0.00s
  Wall time               40.38s
 
 --------------------------------------------------------------
 
                    Orbital Energies (a.u.)
 --------------------------------------------------------------
 
 Alpha MOs
 -- Occupied --
-14.4432 -10.2617 -10.2582 -10.2301 -10.2248 -10.2246 -10.2240 -10.2209
-10.2146  -1.0027  -0.8461  -0.7887  -0.7451  -0.7191  -0.6318  -0.5997
 -0.5843  -0.5413  -0.4865  -0.4708  -0.4375  -0.4302  -0.4259  -0.4049
 -0.3920  -0.3534  -0.3348  -0.3319  -0.2760  -0.2234  -0.1967
 -- Virtual --
 -0.0307  -0.0085   0.0081   0.0135   0.0197   0.0343   0.0360   0.0377
  0.0553   0.0572   0.0625   0.0638   0.0820   0.0849   0.1037   0.1051
  0.1073   0.1227   0.1309   0.1330   0.1494   0.1546   0.1618   0.1625
  0.1692   0.1776   0.1831   0.1836   0.1923   0.1960   0.1974   0.1980
  0.2148   0.2197   0.2293   0.2311   0.2346   0.2428   0.2508   0.2578
  0.2683   0.2694   0.2758   0.2911   0.2923   0.2994   0.3127   0.3285
  0.3460   0.3575   0.3706   0.3905   0.4213   0.4442   0.5094   0.5682
  0.6065   0.6748   0.6775   0.7014   0.7173   0.7250   0.7290   0.7357
  0.7395   0.7572   0.7610   0.7799   0.7942   0.7945   0.8145   0.8551
  0.8894   0.8983   0.9098   0.9413   0.9462   0.9558   0.9619   0.9879
  0.9986   1.0296   1.0461   1.0494   1.0904   1.1095   1.1118   1.1705
  1.1762   1.2014   1.2228   1.2309   1.2423   1.3125   1.3202   1.3402
  1.3633   1.4071   1.4106   1.4445   1.4571   1.4669   1.4902   1.4941
  1.5402   1.5806   1.6447   1.7737   1.8258   1.8850   1.8925   1.9080
  1.9291   1.9816   1.9885   2.0026   2.0479   2.0692   2.1265   2.1531
  2.1555   2.1759   2.2395   2.2412   2.2574   2.2798   2.3070   2.3645
  2.4093   2.4502   2.5325   2.5520   2.6324   2.6450   2.6480   2.6806
  2.7193   2.7987   2.8334   2.8431   2.9544   2.9717   3.0926   3.2387
  3.4080   4.1626   4.2590   4.3024   4.3315   4.3728   4.4113   4.4910
  4.5322   4.7907
 --------------------------------------------------------------
 
          Ground-State Mulliken Net Atomic Charges

     Atom                 Charge (a.u.)
  ----------------------------------------
      1 C                    -0.013982
      2 C                    -0.503130
      3 C                    -0.172640
      4 C                    -1.144821
      5 C                     1.532648
      6 C                    -0.724407
      7 N                    -0.425244
      8 C                    -0.032316
      9 C                    -0.219434
     10 H                     0.436411
     11 H                     0.216967
     12 H                     0.218158
     13 H                     0.205812
     14 H                     0.207074
     15 H                     0.205524
     16 H                     0.213380
  ----------------------------------------
  Sum of atomic charges =     0.000000

 -----------------------------------------------------------------
                    Cartesian Multipole Moments
 -----------------------------------------------------------------
    Charge (ESU x 10^10)
                 0.0000
    Dipole Moment (Debye)
         X      -1.6293      Y       1.7355      Z       0.0000
       Tot       2.3805
    Quadrupole Moments (Debye-Ang)
        XX     -44.6765     XY      -3.7845     YY     -43.8790
        XZ       0.0015     YZ       0.0007     ZZ     -59.1257
    Octopole Moments (Debye-Ang^2)
       XXX     -15.5126    XXY       9.4666    XYY      -8.4055
       YYY      11.3254    XXZ      -0.0054    XYZ      -0.0013
       YYZ       0.0000    XZZ      -2.3483    YZZ       2.3448
       ZZZ      -0.0079
    Hexadecapole Moments (Debye-Ang^3)
      XXXX    -810.6890   XXXY     -23.5735   XXYY    -195.6256
      XYYY     -18.9787   YYYY    -369.4814   XXXZ       0.0415
      XXYZ      -0.0053   XYYZ       0.0062   YYYZ      -0.0051
      XXZZ    -191.3344   XYZZ      -3.4259   YYZZ     -95.0193
      XZZZ       0.0268   YZZZ      -0.0115   ZZZZ     -73.0452
 -----------------------------------------------------------------
 Calculating analytic gradient of the CIS energy
 CIS relaxed dipole moment
            1
    1  -0.8375317
    2   0.5177956
    3   0.0002573
	Magnitude:	 0.985 au	 2.503 Debye
 CIS 3 State Energy is -363.2123632307
 Gradient of the state energy (including CIS Excitation Energy)
            1           2           3           4           5           6
    1  -0.0034706  -0.0005450  -0.0108784   0.0074964   0.0019466   0.0078648
    2   0.0073448  -0.0185088  -0.0047718  -0.0132495   0.0152151   0.0053354
    3   0.0000156  -0.0000145  -0.0000064   0.0000454  -0.0000425  -0.0000274
            7           8           9          10          11          12
    1  -0.0189629   0.0129634   0.0165189  -0.0091139  -0.0004899  -0.0033004
    2  -0.0391501  -0.0093775   0.0372247   0.0199160  -0.0021780   0.0026627
    3  -0.0000000   0.0000530  -0.0000299  -0.0000028   0.0000009  -0.0000051
           13          14          15          16
    1   0.0010335  -0.0017188   0.0008729  -0.0002164
    2   0.0005797   0.0003182  -0.0002314  -0.0011295
    3  -0.0000003   0.0000032   0.0000037   0.0000072
 Gradient time:  CPU 35.29 s  wall 8.88 s
 Geometry Optimization Parameters
   NAtoms,    NIC,     NZ,  NCons,   NDum,   NFix, NCnnct, MaxDiis
       16     116       0       0       0       0       0       0

 Cartesian Hessian Update
 Hessian updated using BFGS update


** GEOMETRY OPTIMIZATION IN DELOCALIZED INTERNAL COORDINATES **
   Searching for a Minimum

   Optimization Cycle:   3

                       Coordinates (Angstroms)
     ATOM                X               Y               Z
      1  C         2.1798953382   -0.6985655410   -0.0000717372
      2  C         2.1477186523    0.7158090724   -0.0001274738
      3  C         0.9175924947    1.4265361012    0.0000846230
      4  C        -0.2521420938    0.6734744100    0.0003596978
      5  C        -0.2461974950   -0.7638783151    0.0000336045
      6  C         0.9827376115   -1.4522944569   -0.0002485059
      7  N        -1.5764155156    1.0700891241    0.0001980455
      8  C        -1.6059143070   -1.1732478211    0.0002808356
      9  C        -2.3927892289   -0.0049648795   -0.0000529703
     10  H        -1.9098967320    2.0488600177    0.0002216746
     11  H        -1.9869231960   -2.1891918418    0.0001871536
     12  H        -3.4710306825    0.1242402266   -0.0002879125
     13  H         3.0810828985    1.2732273794   -0.0001465354
     14  H         0.8893469377    2.5131228199    0.0002505217
     15  H         3.1385899147   -1.2111249610    0.0000392868
     16  H         1.0074403545   -2.5395388423   -0.0001943267
   Point Group: c1    Number of degrees of freedom:    42


   Energy is   -363.212363231

 Hessian updated using BFGS update

 41 Hessian modes will be used to form the next step
  Hessian Eigenvalues:
     0.018594    0.019738    0.020011    0.020794    0.021683    0.022200
     0.022636    0.023004    0.023236    0.023608    0.023851    0.023984
     0.024127    0.159591    0.159969    0.160000    0.160000    0.160000
     0.161959    0.218593    0.220514    0.226592    0.245854    0.252321
     0.356685    0.357158    0.357594    0.357804    0.362878    0.364124
     0.368293    0.375882    0.415244    0.427709    0.442332    0.450997
     0.459853    0.473339    0.476316    0.495184    0.544682

 Minimum search - taking simple RFO step
 Searching for Lamda that Minimizes Along All modes
 Value Taken    Lamda =  -0.00636733
 Step Taken.  Stepsize is  0.122886

                             Maximum     Tolerance    Cnvgd?
         Gradient           0.025827      0.000300      NO
         Displacement       0.064470      0.001200      NO
         Energy change     -0.006177      0.000001      NO


 New Cartesian Coordinates Obtained by Inverse Iteration

 Displacement from previous Coordinates is:  0.168188
 ----------------------------------------------------------------
             Standard Nuclear Orientation (Angstroms)
    I     Atom           X                Y                Z
 ----------------------------------------------------------------
    1      C       2.1666629917    -0.6924789818    -0.0000325689
    2      C       2.1536111568     0.7362218467    -0.0000742607
    3      C       0.9327597409     1.4473903881    -0.0000523961
    4      C      -0.2464368238     0.6851970795     0.0001576002
    5      C      -0.2604013286    -0.7709579743     0.0000999164
    6      C       0.9663020691    -1.4562519518    -0.0000523414
    7      N      -1.5610805565     1.0737541006     0.0002175046
    8      C      -1.6222493928    -1.1769391120    -0.0000092763
    9      C      -2.4023057873    -0.0278311643     0.0001083233
   10      H      -1.8747547888     2.0304564302     0.0002451062
   11      H      -2.0020953471    -2.1891473772    -0.0002048083
   12      H      -3.4756903500     0.0887334725     0.0001012020
   13      H       3.0906677808     1.2822276965    -0.0000688280
   14      H       0.9163537260     2.5330092367     0.0000972937
   15      H       3.1209917620    -1.2098406695     0.0000540856
   16      H       1.0007600991    -2.5409905273    -0.0000605714
 ----------------------------------------------------------------
 Molecular Point Group                 C1    NOp =  1
 Largest Abelian Subgroup              C1    NOp =  1
 Nuclear Repulsion Energy =         397.47439372 hartrees
 There are       31 alpha and       31 beta electrons
 Applying Cartesian multipole field
    Component          Value
    ---------          -----
     (2,0,0)        1.00000E-11
     (0,2,0)        2.00000E-11
     (0,0,2)       -3.00000E-11
 Nucleus-field energy     =     0.0000000119 hartrees
 Requested basis set is 6-31+G(d)
 There are 59 shells and 185 basis functions
 A cutoff of  1.0D-12 yielded   1656 shell pairs
 There are     17099 function pairs
 Smallest overlap matrix eigenvalue = 1.41E-06
 Guess MOs from SCF MO coefficient file

 -----------------------------------------------------------------------
  General SCF calculation program by
  Eric Jon Sundstrom, Paul Horn, Yuezhi Mao, Dmitri Zuev, Alec White,
  David Stuck, Shaama M.S., Shane Yost, Joonho Lee, David Small,
  Daniel Levine, Susi Lehtola, Hugh Burton, Evgeny Epifanovsky,
  Bang C. Huynh
 -----------------------------------------------------------------------
 Exchange:     0.2500 Hartree-Fock + 1.0000 PBE + -0.2500 wPBE + LR-HF
 Correlation:  1.0000 PBE
 Using SG-1 standard quadrature grid
 using 4 threads for integral computing
 -------------------------------------------------------
 OpenMP Integral computing Module                
 Release: version 1.0, May 2013, Q-Chem Inc. Pittsburgh 
 -------------------------------------------------------
 using 4 threads for integral computing
 -------------------------------------------------------
 OpenMP Integral computing Module                
 Release: version 1.0, May 2013, Q-Chem Inc. Pittsburgh 
 -------------------------------------------------------
 A restricted SCF calculation will be
 performed using DIIS
 SCF converges when DIIS error is below 1.0e-08
 ---------------------------------------
  Cycle       Energy         DIIS error
 ---------------------------------------
    1    -363.3908452279      6.82e-04  
    2    -363.3931093083      1.50e-04  
    3    -363.3930582220      1.78e-04  
    4    -363.3931872993      4.86e-05  
    5    -363.3931963203      2.19e-05  
    6    -363.3931986133      2.41e-06  
    7    -363.3931986341      1.38e-06  
    8    -363.3931986420      2.03e-07  
    9    -363.3931986421      1.21e-07  
   10    -363.3931986422      3.44e-08  
   11    -363.3931986422      1.31e-08  
   12    -363.3931986422      3.99e-09  Convergence criterion met
 ---------------------------------------
 SCF time:   CPU 42.82s  wall 11.00s 
 SCF   energy in the final basis set =     -363.3931986422
 Total energy in the final basis set =     -363.3931986422
 
 Direct TDDFT/TDA calculation will be performed
 Exchange:     0.2500 Hartree-Fock + 1.0000 PBE + -0.2500 wPBE + LR-HF
 Correlation:  1.0000 PBE
 Using SG-1 standard quadrature grid
 Singlet excitation energies requested
 CIS energy converged when residual is below 10e- 6
 ---------------------------------------------------
 Iter    Rts Conv    Rts Left    Ttl Dev     Max Dev
 ---------------------------------------------------
   1         0           3      0.003733    0.001847
   2         0           3      0.003206    0.001879
   3         0           3      0.001545    0.001134
   4         0           3      0.000360    0.000201
   5         1           2      0.000104    0.000069
   6         1           2      0.000028    0.000017
   7         1           2      0.000007    0.000004
   8         3           0      0.000002    0.000001    Roots Converged
 ---------------------------------------------------
 
 ---------------------------------------------------
         TDDFT/TDA Excitation Energies              
 ---------------------------------------------------

 Excited state   1: excitation energy (eV) =    4.8167
 Total energy for state  1:                  -363.21618950 au
    Multiplicity: Singlet
    Trans. Mom.:  0.0345 X   0.5336 Y  -0.0000 Z
    Strength   :     0.0337368806
    D(   30) --> V(    1) amplitude =  0.7036
    D(   31) --> V(    1) amplitude =  0.4700
    D(   31) --> V(    3) amplitude =  0.4655

 Excited state   2: excitation energy (eV) =    4.8735
 Total energy for state  2:                  -363.21410080 au
    Multiplicity: Singlet
    Trans. Mom.: -0.7782 X   0.4674 Y  -0.0000 Z
    Strength   :     0.0984009197
    D(   30) --> V(    1) amplitude = -0.3517
    D(   30) --> V(    3) amplitude = -0.2368
    D(   31) --> V(    1) amplitude =  0.7796
    D(   31) --> V(    3) amplitude = -0.3959

 Excited state   3: excitation energy (eV) =    5.0302
 Total energy for state  3:                  -363.20834142 au
    Multiplicity: Singlet
    Trans. Mom.: -0.0002 X   0.0001 Y   0.1431 Z
    Strength   :     0.0025232111
    D(   31) --> V(    2) amplitude =  0.9962
 
 ---------------------------------------------------
 Calculating Relaxed Density
 ---------------------------------------------------
 Iter    Rts Conv    Rts Left    Ttl Dev     Max Dev
 ---------------------------------------------------
   1         0           3      0.001720    0.000909
   2         0           3      0.000637    0.000280
   3         0           3      0.000153    0.000071
   4         0           3      0.000039    0.000020
   5         0           3      0.000007    0.000003
   6         3           0      0.000000    0.000000    Roots Converged
 ---------------------------------------------------
  SETman timing summary (seconds)
  CPU time               150.64s
  System time              0.00s
  Wall time               37.88s
 
 --------------------------------------------------------------
 
                    Orbital Energies (a.u.)
 --------------------------------------------------------------
 
 Alpha MOs
 -- Occupied --
-14.4397 -10.2618 -10.2609 -10.2305 -10.2264 -10.2259 -10.2253 -10.2217
-10.2158  -0.9974  -0.8420  -0.7930  -0.7391  -0.7237  -0.6303  -0.6016
 -0.5842  -0.5403  -0.4896  -0.4694  -0.4360  -0.4301  -0.4225  -0.4074
 -0.3940  -0.3533  -0.3349  -0.3284  -0.2793  -0.2174  -0.2022
 -- Virtual --
 -0.0311  -0.0056   0.0059   0.0139   0.0192   0.0342   0.0358   0.0375
  0.0557   0.0573   0.0633   0.0637   0.0814   0.0853   0.1038   0.1047
  0.1083   0.1224   0.1308   0.1346   0.1509   0.1547   0.1618   0.1618
  0.1682   0.1786   0.1825   0.1829   0.1923   0.1948   0.1963   0.1974
  0.2147   0.2199   0.2276   0.2317   0.2355   0.2408   0.2525   0.2577
  0.2676   0.2697   0.2755   0.2885   0.2920   0.3002   0.3106   0.3253
  0.3398   0.3595   0.3713   0.3917   0.4207   0.4437   0.5063   0.5616
  0.5984   0.6743   0.6773   0.7023   0.7104   0.7240   0.7289   0.7353
  0.7404   0.7559   0.7560   0.7794   0.7926   0.7944   0.8135   0.8539
  0.8915   0.8997   0.9123   0.9403   0.9463   0.9553   0.9619   0.9878
  0.9962   1.0319   1.0498   1.0642   1.0906   1.1080   1.1108   1.1660
  1.1774   1.1999   1.2225   1.2318   1.2413   1.3142   1.3154   1.3385
  1.3630   1.4050   1.4059   1.4384   1.4547   1.4682   1.4902   1.4925
  1.5311   1.5808   1.6412   1.7817   1.8248   1.8848   1.8879   1.9079
  1.9213   1.9858   1.9910   2.0028   2.0424   2.0565   2.1243   2.1329
  2.1470   2.1880   2.2286   2.2378   2.2549   2.2634   2.3003   2.3583
  2.4084   2.4458   2.5317   2.5447   2.6254   2.6323   2.6480   2.6773
  2.7140   2.7927   2.8271   2.8385   2.9594   2.9661   3.0984   3.2307
  3.3907   4.1573   4.2539   4.3055   4.3340   4.3722   4.4114   4.4886
  4.5305   4.7828
 --------------------------------------------------------------
 
          Ground-State Mulliken Net Atomic Charges

     Atom                 Charge (a.u.)
  ----------------------------------------
      1 C                    -0.014887
      2 C                    -0.490637
      3 C                    -0.175083
      4 C                    -1.083617
      5 C                     1.464845
      6 C                    -0.769346
      7 N                    -0.451902
      8 C                     0.039309
      9 C                    -0.226472
     10 H                     0.436653
     11 H                     0.219025
     12 H                     0.219446
     13 H                     0.207210
     14 H                     0.208521
     15 H                     0.203365
     16 H                     0.213570
  ----------------------------------------
  Sum of atomic charges =     0.000000

 -----------------------------------------------------------------
                    Cartesian Multipole Moments
 -----------------------------------------------------------------
    Charge (ESU x 10^10)
                -0.0000
    Dipole Moment (Debye)
         X      -1.6293      Y       1.5887      Z       0.0002
       Tot       2.2757
    Quadrupole Moments (Debye-Ang)
        XX     -44.7326     XY      -3.1083     YY     -43.8083
        XZ       0.0004     YZ       0.0013     ZZ     -59.1562
    Octopole Moments (Debye-Ang^2)
       XXX     -15.5525    XXY       8.5333    XYY      -7.8721
       YYY      10.3744    XXZ      -0.0008    XYZ      -0.0022
       YYZ      -0.0013    XZZ      -2.4092    YZZ       2.0828
       ZZZ      -0.0062
    Hexadecapole Moments (Debye-Ang^3)
      XXXX    -810.5516   XXXY     -22.3604   XXYY    -196.7221
      XYYY     -20.7681   YYYY    -372.8999   XXXZ       0.0191
      XXYZ       0.0015   XYYZ       0.0070   YYYZ       0.0026
      XXZZ    -191.4381   XYZZ      -4.6101   YYZZ     -95.6105
      XZZZ       0.0194   YZZZ      -0.0060   ZZZZ     -73.0674
 -----------------------------------------------------------------
 Calculating analytic gradient of the CIS energy
 CIS relaxed dipole moment
            1
    1   2.3725598
    2  -2.6528622
    3  -0.0004926
	Magnitude:	 3.559 au	 9.046 Debye
 CIS 3 State Energy is -363.2083414203
 Gradient of the state energy (including CIS Excitation Energy)
            1           2           3           4           5           6
    1   0.0094920   0.0062420   0.0180444  -0.0121248  -0.0035049  -0.0145099
    2  -0.0162876   0.0356793   0.0132810   0.0176531  -0.0215781  -0.0141276
    3   0.0000049  -0.0000027  -0.0000315   0.0000142   0.0000188  -0.0000166
            7           8           9          10          11          12
    1   0.0281877  -0.0208621  -0.0302862   0.0140981   0.0006304   0.0038273
    2   0.0631909   0.0088722  -0.0551798  -0.0307330   0.0020636  -0.0043486
    3   0.0000103  -0.0000031  -0.0000066  -0.0000040  -0.0000027  -0.0000008
           13          14          15          16
    1  -0.0005838   0.0024958  -0.0001360  -0.0010100
    2   0.0002140   0.0008732   0.0000358   0.0003916
    3   0.0000010   0.0000110   0.0000052   0.0000026
 Gradient time:  CPU 35.27 s  wall 8.87 s
 Geometry Optimization Parameters
   NAtoms,    NIC,     NZ,  NCons,   NDum,   NFix, NCnnct, MaxDiis
       16     116       0       0       0       0       0       0

 Cartesian Hessian Update
 Hessian updated using BFGS update


** GEOMETRY OPTIMIZATION IN DELOCALIZED INTERNAL COORDINATES **
   Searching for a Minimum

   Optimization Cycle:   4

                       Coordinates (Angstroms)
     ATOM                X               Y               Z
      1  C         2.1666629917   -0.6924789818   -0.0000325689
      2  C         2.1536111568    0.7362218467   -0.0000742607
      3  C         0.9327597409    1.4473903881   -0.0000523961
      4  C        -0.2464368238    0.6851970795    0.0001576002
      5  C        -0.2604013286   -0.7709579743    0.0000999164
      6  C         0.9663020691   -1.4562519518   -0.0000523414
      7  N        -1.5610805565    1.0737541006    0.0002175046
      8  C        -1.6222493928   -1.1769391120   -0.0000092763
      9  C        -2.4023057873   -0.0278311643    0.0001083233
     10  H        -1.8747547888    2.0304564302    0.0002451062
     11  H        -2.0020953471   -2.1891473772   -0.0002048083
     12  H        -3.4756903500    0.0887334725    0.0001012020
     13  H         3.0906677808    1.2822276965   -0.0000688280
     14  H         0.9163537260    2.5330092367    0.0000972937
     15  H         3.1209917620   -1.2098406695    0.0000540856
     16  H         1.0007600991   -2.5409905273   -0.0000605714
   Point Group: c1    Number of degrees of freedom:    42


   Energy is   -363.208341420

 Hessian updated using BFGS update

 41 Hessian modes will be used to form the next step
  Hessian Eigenvalues:
     0.018594    0.019738    0.020011    0.020794    0.021683    0.022200
     0.022636    0.023004    0.023236    0.023608    0.023851    0.023984
     0.024127    0.159745    0.159996    0.160000    0.160000    0.160451
     0.162382    0.220253    0.221700    0.226646    0.247108    0.253357
     0.356636    0.357159    0.357567    0.357963    0.363657    0.364309
     0.369888    0.380132    0.412732    0.427491    0.448993    0.457976
     0.473132    0.475728    0.479181    0.506561    1.277429

 Minimum search - taking simple RFO step
 Searching for Lamda that Minimizes Along All modes
 Value Taken    Lamda =  -0.00655878
 Step Taken.  Stepsize is  0.073975

                             Maximum     Tolerance    Cnvgd?
         Gradient           0.043201      0.000300      NO
         Displacement       0.038903      0.001200      NO
         Energy change      0.004022      0.000001      NO


 New Cartesian Coordinates Obtained by Inverse Iteration

 Displacement from previous Coordinates is:  0.104204
 ----------------------------------------------------------------
             Standard Nuclear Orientation (Angstroms)
    I     Atom           X                Y                Z
 ----------------------------------------------------------------
    1      C       2.1710590448    -0.6944298845    -0.0000176357
    2      C       2.1460656179     0.7217923385    -0.0000440433
    3      C       0.9226263970     1.4323855725    -0.0000046908
    4      C      -0.2494832001     0.6783619511     0.0001285505
    5      C      -0.2517514729    -0.7661321569     0.0000802800
    6      C       0.9756586453    -1.4509748908    -0.0000096426
    7      N      -1.5682038643     1.0715332157     0.0001444119
    8      C      -1.6112203391    -1.1731717759    -0.0000503154
    9      C      -2.3938070493    -0.0150771326     0.0001238582
   10      H      -1.8935302359     2.0404049219     0.0002655063
   11      H      -1.9925915978    -2.1864221000    -0.0002201727
   12      H      -3.4692980099     0.1082834318     0.0001605416
   13      H       3.0807760133     1.2732631254    -0.0000688082
   14      H       0.9012047636     2.5178761042     0.0000693634
   15      H       3.1271997511    -1.2088243841     0.0000156480
   16      H       1.0083904877    -2.5363158435    -0.0000468700
 ----------------------------------------------------------------
 Molecular Point Group                 C1    NOp =  1
 Largest Abelian Subgroup              C1    NOp =  1
 Nuclear Repulsion Energy =         398.54621156 hartrees
 There are       31 alpha and       31 beta electrons
 Applying Cartesian multipole field
    Component          Value
    ---------          -----
     (2,0,0)        1.00000E-11
     (0,2,0)        2.00000E-11
     (0,0,2)       -3.00000E-11
 Nucleus-field energy     =     0.0000000119 hartrees
 Requested basis set is 6-31+G(d)
 There are 59 shells and 185 basis functions
 A cutoff of  1.0D-12 yielded   1657 shell pairs
 There are     17105 function pairs
 Smallest overlap matrix eigenvalue = 1.33E-06
 Guess MOs from SCF MO coefficient file

 -----------------------------------------------------------------------
  General SCF calculation program by
  Eric Jon Sundstrom, Paul Horn, Yuezhi Mao, Dmitri Zuev, Alec White,
  David Stuck, Shaama M.S., Shane Yost, Joonho Lee, David Small,
  Daniel Levine, Susi Lehtola, Hugh Burton, Evgeny Epifanovsky,
  Bang C. Huynh
 -----------------------------------------------------------------------
 Exchange:     0.2500 Hartree-Fock + 1.0000 PBE + -0.2500 wPBE + LR-HF
 Correlation:  1.0000 PBE
 Using SG-1 standard quadrature grid
 using 4 threads for integral computing
 -------------------------------------------------------
 OpenMP Integral computing Module                
 Release: version 1.0, May 2013, Q-Chem Inc. Pittsburgh 
 -------------------------------------------------------
 using 4 threads for integral computing
 -------------------------------------------------------
 OpenMP Integral computing Module                
 Release: version 1.0, May 2013, Q-Chem Inc. Pittsburgh 
 -------------------------------------------------------
 A restricted SCF calculation will be
 performed using DIIS
 SCF converges when DIIS error is below 1.0e-08
 ---------------------------------------
  Cycle       Energy         DIIS error
 ---------------------------------------
    1    -363.3933180401      4.03e-04  
    2    -363.3940744852      9.85e-05  
    3    -363.3940561896      1.13e-04  
    4    -363.3941098199      2.96e-05  
    5    -363.3941132695      1.29e-05  
    6    -363.3941140595      2.05e-06  
    7    -363.3941140768      7.77e-07  
    8    -363.3941140791      2.94e-07  
    9    -363.3941140795      8.86e-08  
   10    -363.3941140795      4.43e-08  
   11    -363.3941140795      5.77e-09  Convergence criterion met
 ---------------------------------------
 SCF time:   CPU 39.63s  wall 10.00s 
 SCF   energy in the final basis set =     -363.3941140795
 Total energy in the final basis set =     -363.3941140795
 
 Direct TDDFT/TDA calculation will be performed
 Exchange:     0.2500 Hartree-Fock + 1.0000 PBE + -0.2500 wPBE + LR-HF
 Correlation:  1.0000 PBE
 Using SG-1 standard quadrature grid
 Singlet excitation energies requested
 CIS energy converged when residual is below 10e- 6
 ---------------------------------------------------
 Iter    Rts Conv    Rts Left    Ttl Dev     Max Dev
 ---------------------------------------------------
   1         0           3      0.003732    0.001859
   2         0           3      0.002930    0.001802
   3         0           3      0.001918    0.001688
   4         0           3      0.001462    0.001372
   5         1           2      0.000277    0.000251
   6         1           2      0.000058    0.000052
   7         1           2      0.000020    0.000018
   8         2           1      0.000004    0.000003
   9         3           0      0.000001    0.000001    Roots Converged
 ---------------------------------------------------
 
 ---------------------------------------------------
         TDDFT/TDA Excitation Energies              
 ---------------------------------------------------

 Excited state   1: excitation energy (eV) =    4.8090
 Total energy for state  1:                  -363.21738813 au
    Multiplicity: Singlet
    Trans. Mom.:  0.7420 X  -0.6801 Y  -0.0000 Z
    Strength   :     0.1193581984
    D(   30) --> V(    3) amplitude =  0.2531
    D(   31) --> V(    1) amplitude =  0.9147

 Excited state   2: excitation energy (eV) =    4.8912
 Total energy for state  2:                  -363.21436455 au
    Multiplicity: Singlet
    Trans. Mom.:  0.2923 X   0.1942 Y  -0.0000 Z
    Strength   :     0.0147552052
    D(   30) --> V(    1) amplitude =  0.7650
    D(   31) --> V(    3) amplitude = -0.6265

 Excited state   3: excitation energy (eV) =    4.9014
 Total energy for state  3:                  -363.21399173 au
    Multiplicity: Singlet
    Trans. Mom.: -0.0001 X   0.0001 Y  -0.1403 Z
    Strength   :     0.0023627793
    D(   31) --> V(    2) amplitude =  0.9965
 
 ---------------------------------------------------
 Calculating Relaxed Density
 ---------------------------------------------------
 Iter    Rts Conv    Rts Left    Ttl Dev     Max Dev
 ---------------------------------------------------
   1         0           3      0.001718    0.000969
   2         0           3      0.000630    0.000305
   3         0           3      0.000166    0.000086
   4         0           3      0.000045    0.000025
   5         1           2      0.000006    0.000003
   6         1           2      0.000002    0.000001
   7         3           0      0.000000    0.000000    Roots Converged
 ---------------------------------------------------
  SETman timing summary (seconds)
  CPU time               162.17s
  System time              0.00s
  Wall time               40.78s
 
 --------------------------------------------------------------
 
                    Orbital Energies (a.u.)
 --------------------------------------------------------------
 
 Alpha MOs
 -- Occupied --
-14.4414 -10.2611 -10.2586 -10.2293 -10.2245 -10.2244 -10.2237 -10.2201
-10.2145  -1.0009  -0.8454  -0.7911  -0.7432  -0.7215  -0.6314  -0.6007
 -0.5847  -0.5412  -0.4877  -0.4705  -0.4370  -0.4304  -0.4249  -0.4064
 -0.3929  -0.3533  -0.3347  -0.3310  -0.2777  -0.2210  -0.1991
 -- Virtual --
 -0.0304  -0.0072   0.0079   0.0137   0.0195   0.0345   0.0359   0.0380
  0.0555   0.0573   0.0631   0.0639   0.0819   0.0851   0.1039   0.1051
  0.1079   0.1227   0.1310   0.1339   0.1504   0.1547   0.1623   0.1626
  0.1690   0.1783   0.1832   0.1836   0.1926   0.1957   0.1974   0.1979
  0.2152   0.2202   0.2288   0.2315   0.2351   0.2424   0.2519   0.2581
  0.2684   0.2697   0.2759   0.2913   0.2931   0.3006   0.3123   0.3276
  0.3442   0.3593   0.3718   0.3920   0.4226   0.4452   0.5093   0.5675
  0.6058   0.6745   0.6774   0.7019   0.7150   0.7245   0.7302   0.7365
  0.7399   0.7568   0.7596   0.7799   0.7946   0.7947   0.8146   0.8550
  0.8909   0.8993   0.9116   0.9410   0.9465   0.9556   0.9622   0.9880
  0.9987   1.0312   1.0490   1.0545   1.0908   1.1103   1.1109   1.1692
  1.1777   1.2017   1.2232   1.2311   1.2428   1.3139   1.3186   1.3392
  1.3641   1.4063   1.4103   1.4431   1.4563   1.4672   1.4907   1.4942
  1.5379   1.5822   1.6446   1.7785   1.8271   1.8874   1.8917   1.9123
  1.9272   1.9859   1.9913   2.0037   2.0492   2.0671   2.1306   2.1476
  2.1540   2.1832   2.2405   2.2415   2.2560   2.2747   2.3066   2.3647
  2.4112   2.4501   2.5359   2.5518   2.6312   2.6446   2.6496   2.6818
  2.7197   2.7992   2.8345   2.8441   2.9602   2.9708   3.0995   3.2391
  3.4086   4.1616   4.2605   4.3044   4.3337   4.3739   4.4120   4.4915
  4.5323   4.7902
 --------------------------------------------------------------
 
          Ground-State Mulliken Net Atomic Charges

     Atom                 Charge (a.u.)
  ----------------------------------------
      1 C                    -0.010118
      2 C                    -0.501742
      3 C                    -0.166804
      4 C                    -1.118511
      5 C                     1.503419
      6 C                    -0.751932
      7 N                    -0.438939
      8 C                     0.004037
      9 C                    -0.223466
     10 H                     0.436640
     11 H                     0.217729
     12 H                     0.218475
     13 H                     0.206030
     14 H                     0.207531
     15 H                     0.204413
     16 H                     0.213239
  ----------------------------------------
  Sum of atomic charges =     0.000000

 -----------------------------------------------------------------
                    Cartesian Multipole Moments
 -----------------------------------------------------------------
    Charge (ESU x 10^10)
                -0.0000
    Dipole Moment (Debye)
         X      -1.6249      Y       1.6702      Z       0.0002
       Tot       2.3302
    Quadrupole Moments (Debye-Ang)
        XX     -44.7149     XY      -3.5015     YY     -43.8668
        XZ      -0.0005     YZ       0.0014     ZZ     -59.0757
    Octopole Moments (Debye-Ang^2)
       XXX     -15.4596    XXY       8.9898    XYY      -8.1575
       YYY      10.9225    XXZ      -0.0002    XYZ      -0.0027
       YYZ      -0.0014    XZZ      -2.3264    YZZ       2.2210
       ZZZ      -0.0063
    Hexadecapole Moments (Debye-Ang^3)
      XXXX    -809.0004   XXXY     -22.9071   XXYY    -195.5658
      XYYY     -19.6577   YYYY    -370.0333   XXXZ       0.0066
      XXYZ       0.0027   XYYZ       0.0033   YYYZ       0.0027
      XXZZ    -190.7385   XYZZ      -3.8582   YYZZ     -94.9401
      XZZZ       0.0132   YZZZ      -0.0058   ZZZZ     -72.8709
 -----------------------------------------------------------------
 Calculating analytic gradient of the CIS energy
 CIS relaxed dipole moment
            1
    1   2.4098685
    2  -2.6584809
    3  -0.0002100
	Magnitude:	 3.588 au	 9.120 Debye
 CIS 3 State Energy is -363.2139917337
 Gradient of the state energy (including CIS Excitation Energy)
            1           2           3           4           5           6
    1   0.0090458   0.0051336   0.0119209  -0.0099427   0.0017908  -0.0130560
    2  -0.0090382   0.0228902   0.0084436   0.0115628  -0.0145472  -0.0090006
    3   0.0000007  -0.0000024  -0.0000143   0.0000068   0.0000184  -0.0000024
            7           8           9          10          11          12
    1   0.0223004  -0.0176113  -0.0237917   0.0102892   0.0004132   0.0027655
    2   0.0473354   0.0091356  -0.0436663  -0.0219762   0.0009264  -0.0029386
    3  -0.0000080  -0.0000141   0.0000115  -0.0000009  -0.0000021  -0.0000004
           13          14          15          16
    1  -0.0000864   0.0013223   0.0000763  -0.0005698
    2  -0.0000651   0.0008168   0.0000425   0.0000788
    3   0.0000002   0.0000051   0.0000027  -0.0000008
 Gradient time:  CPU 35.30 s  wall 8.88 s
 Geometry Optimization Parameters
   NAtoms,    NIC,     NZ,  NCons,   NDum,   NFix, NCnnct, MaxDiis
       16     116       0       0       0       0       0       0

 Cartesian Hessian Update
 Hessian updated using BFGS update


** GEOMETRY OPTIMIZATION IN DELOCALIZED INTERNAL COORDINATES **
   Searching for a Minimum

   Optimization Cycle:   5

                       Coordinates (Angstroms)
     ATOM                X               Y               Z
      1  C         2.1710590448   -0.6944298845   -0.0000176357
      2  C         2.1460656179    0.7217923385   -0.0000440433
      3  C         0.9226263970    1.4323855725   -0.0000046908
      4  C        -0.2494832001    0.6783619511    0.0001285505
      5  C        -0.2517514729   -0.7661321569    0.0000802800
      6  C         0.9756586453   -1.4509748908   -0.0000096426
      7  N        -1.5682038643    1.0715332157    0.0001444119
      8  C        -1.6112203391   -1.1731717759   -0.0000503154
      9  C        -2.3938070493   -0.0150771326    0.0001238582
     10  H        -1.8935302359    2.0404049219    0.0002655063
     11  H        -1.9925915978   -2.1864221000   -0.0002201727
     12  H        -3.4692980099    0.1082834318    0.0001605416
     13  H         3.0807760133    1.2732631254   -0.0000688082
     14  H         0.9012047636    2.5178761042    0.0000693634
     15  H         3.1271997511   -1.2088243841    0.0000156480
     16  H         1.0083904877   -2.5363158435   -0.0000468700
   Point Group: c1    Number of degrees of freedom:    42


   Energy is   -363.213991734

 Hessian updated using BFGS update

 42 Hessian modes will be used to form the next step
  Hessian Eigenvalues:
     0.018594    0.019738    0.020011    0.020794    0.021683    0.022200
     0.022636    0.023004    0.023236    0.023608    0.023851    0.023984
     0.024127    0.158263    0.159785    0.159997    0.160000    0.160000
     0.160178    0.162578    0.212003    0.220773    0.227038    0.245661
     0.255046    0.328313    0.356939    0.357165    0.357614    0.358189
[...]
            7           8           9          10          11          12
    1  -0.0231833   0.0200136   0.0238051  -0.0105589  -0.0002957  -0.0027888
    2  -0.0453963  -0.0111275   0.0448895   0.0220899  -0.0008295   0.0028405
    3   0.0000778  -0.0000809  -0.0002062   0.0003601  -0.0000028   0.0000074
           13          14          15          16
    1  -0.0000255  -0.0012486   0.0000874   0.0002299
    2  -0.0000313  -0.0008735   0.0002791   0.0000455
    3  -0.0000142   0.0000208  -0.0000012  -0.0000595
 Gradient time:  CPU 35.63 s  wall 8.96 s
 Geometry Optimization Parameters
   NAtoms,    NIC,     NZ,  NCons,   NDum,   NFix, NCnnct, MaxDiis
       16     116       0       0       0       0       0       0

 Cartesian Hessian Update
 Hessian updated using BFGS update


** GEOMETRY OPTIMIZATION IN DELOCALIZED INTERNAL COORDINATES **
   Searching for a Minimum

   Optimization Cycle:  49

                       Coordinates (Angstroms)
     ATOM                X               Y               Z
      1  C         2.1708148616   -0.6990772105   -0.0026844180
      2  C         2.1366096308    0.7106957946    0.0041646218
      3  C         0.9141372440    1.4222828651   -0.0019913347
      4  C        -0.2506083090    0.6740534186   -0.0055123408
      5  C        -0.2460323632   -0.7648495088    0.0002966041
      6  C         0.9856828343   -1.4504611216    0.0018922068
      7  N        -1.5755199317    1.0704801459   -0.0022585910
      8  C        -1.5969692127   -1.1734122829    0.0004556175
      9  C        -2.3824502379    0.0000833336   -0.0011070901
     10  H        -1.9153780245    2.0506782462    0.0041553580
     11  H        -1.9841519429   -2.1849581922    0.0021570822
     12  H        -3.4605053685    0.1267447768    0.0002714137
     13  H         3.0694522682    1.2659217032    0.0064596262
     14  H         0.8927357160    2.5073909824   -0.0018259916
     15  H         3.1307667771   -1.2068906183   -0.0060120894
     16  H         1.0145110098   -2.5361298395    0.0020653065
   Point Group: c1    Number of degrees of freedom:    42


   Energy is   -363.210710006

 Hessian updated using BFGS update

 42 Hessian modes will be used to form the next step
  Hessian Eigenvalues:
     0.018811    0.020011    0.020328    0.021298    0.022089    0.022514
     0.022951    0.023104    0.023679    0.023863    0.023977    0.024121
     0.140016    0.159389    0.159898    0.160034    0.160135    0.160572
     0.160882    0.162985    0.220034    0.225041    0.241156    0.248529
     0.299141    0.356961    0.357159    0.357668    0.358004    0.363919
     0.364358    0.373823    0.397722    0.415802    0.425500    0.433344
     0.453505    0.470003    0.486293    0.505500    0.680289    1.111112

 Minimum search - taking simple RFO step
 Searching for Lamda that Minimizes Along All modes
 Value Taken    Lamda =  -0.00915005
 Step Taken.  Stepsize is  0.154266

                             Maximum     Tolerance    Cnvgd?
         Gradient           0.032151      0.000300      NO
         Displacement       0.069908      0.001200      NO
         Energy change     -0.014745      0.000001      NO


 New Cartesian Coordinates Obtained by Inverse Iteration

 Displacement from previous Coordinates is:  0.188499
 ----------------------------------------------------------------
             Standard Nuclear Orientation (Angstroms)
    I     Atom           X                Y                Z
 ----------------------------------------------------------------
    1      C       2.1726396911    -0.6884548782     0.0009802056
    2      C       2.1561195627     0.7302344034    -0.0003890458
    3      C       0.9307239897     1.4406319350     0.0013878997
    4      C      -0.2481998757     0.6819348735     0.0020997821
    5      C      -0.2561869146    -0.7669222668    -0.0014814728
    6      C       0.9665826328    -1.4501333404    -0.0018002440
    7      N      -1.5604842359     1.0692785049    -0.0012289126
    8      C      -1.6257810442    -1.1713604677     0.0007228096
    9      C      -2.4037105287    -0.0286848231     0.0011167927
   10      H      -1.8768100985     2.0267307500    -0.0019015283
   11      H      -2.0051485925    -2.1851743891     0.0006484422
   12      H      -3.4769806304     0.0950024020     0.0009455449
   13      H       3.0925233776     1.2791946102    -0.0007750576
   14      H       0.9090946304     2.5265968256     0.0005402282
   15      H       3.1242596952    -1.2109482016     0.0013248381
   16      H       1.0044532920    -2.5353734452    -0.0016643008
 ----------------------------------------------------------------
 Molecular Point Group                 C1    NOp =  1
 Largest Abelian Subgroup              C1    NOp =  1
 Nuclear Repulsion Energy =         397.90408721 hartrees
 There are       31 alpha and       31 beta electrons
 Applying Cartesian multipole field
    Component          Value
    ---------          -----
     (2,0,0)        1.00000E-11
     (0,2,0)        2.00000E-11
     (0,0,2)       -3.00000E-11
 Nucleus-field energy     =     0.0000000119 hartrees
 Requested basis set is 6-31+G(d)
 There are 59 shells and 185 basis functions
 A cutoff of  1.0D-12 yielded   1656 shell pairs
 There are     17099 function pairs
 Smallest overlap matrix eigenvalue = 1.38E-06
 Guess MOs from SCF MO coefficient file

 -----------------------------------------------------------------------
  General SCF calculation program by
  Eric Jon Sundstrom, Paul Horn, Yuezhi Mao, Dmitri Zuev, Alec White,
  David Stuck, Shaama M.S., Shane Yost, Joonho Lee, David Small,
  Daniel Levine, Susi Lehtola, Hugh Burton, Evgeny Epifanovsky,
  Bang C. Huynh
 -----------------------------------------------------------------------
 Exchange:     0.2500 Hartree-Fock + 1.0000 PBE + -0.2500 wPBE + LR-HF
 Correlation:  1.0000 PBE
 Using SG-1 standard quadrature grid
 using 4 threads for integral computing
 -------------------------------------------------------
 OpenMP Integral computing Module                
 Release: version 1.0, May 2013, Q-Chem Inc. Pittsburgh 
 -------------------------------------------------------
 using 4 threads for integral computing
 -------------------------------------------------------
 OpenMP Integral computing Module                
 Release: version 1.0, May 2013, Q-Chem Inc. Pittsburgh 
 -------------------------------------------------------
 A restricted SCF calculation will be
 performed using DIIS
 SCF converges when DIIS error is below 1.0e-08
 ---------------------------------------
  Cycle       Energy         DIIS error
 ---------------------------------------
    1    -363.3907034622      7.15e-04  
    2    -363.3936519984      1.80e-04  
    3    -363.3935334244      2.33e-04  
    4    -363.3937675937      6.71e-05  
    5    -363.3937861940      2.28e-05  
    6    -363.3937885024      4.45e-06  
    7    -363.3937885786      2.37e-06  
    8    -363.3937886051      5.26e-07  
    9    -363.3937886062      2.24e-07  
   10    -363.3937886065      9.94e-08  
   11    -363.3937886065      1.63e-08  
   12    -363.3937886065      5.69e-09  Convergence criterion met
 ---------------------------------------
 SCF time:   CPU 44.59s  wall 11.00s 
 SCF   energy in the final basis set =     -363.3937886065
 Total energy in the final basis set =     -363.3937886065
 
 Direct TDDFT/TDA calculation will be performed
 Exchange:     0.2500 Hartree-Fock + 1.0000 PBE + -0.2500 wPBE + LR-HF
 Correlation:  1.0000 PBE
 Using SG-1 standard quadrature grid
 Singlet excitation energies requested
 CIS energy converged when residual is below 10e- 6
 ---------------------------------------------------
 Iter    Rts Conv    Rts Left    Ttl Dev     Max Dev
 ---------------------------------------------------
   1         0           3      0.003732    0.001848
   2         0           3      0.003051    0.001889
   3         0           3      0.001551    0.001181
   4         0           3      0.000361    0.000218
   5         0           3      0.000098    0.000067
   6         0           3      0.000029    0.000020
   7         1           2      0.000005    0.000003
   8         3           0      0.000001    0.000001    Roots Converged
 ---------------------------------------------------
 
 ---------------------------------------------------
         TDDFT/TDA Excitation Energies              
 ---------------------------------------------------

 Excited state   1: excitation energy (eV) =    4.8174
 Total energy for state  1:                  -363.21675218 au
    Multiplicity: Singlet
    Trans. Mom.:  0.1656 X  -0.6671 Y  -0.0022 Z
    Strength   :     0.0557587764
    D(   30) --> V(    1) amplitude = -0.5304
    D(   30) --> V(    3) amplitude =  0.2126
    D(   31) --> V(    1) amplitude =  0.7116
    D(   31) --> V(    3) amplitude =  0.3175

 Excited state   2: excitation energy (eV) =    4.8900
 Total energy for state  2:                  -363.21408590 au
    Multiplicity: Singlet
    Trans. Mom.:  0.7047 X  -0.3034 Y   0.0006 Z
    Strength   :     0.0705132007
    D(   30) --> V(    1) amplitude =  0.5732
    D(   31) --> V(    1) amplitude =  0.5756
    D(   31) --> V(    3) amplitude = -0.5276

 Excited state   3: excitation energy (eV) =    5.0208
 Total energy for state  3:                  -363.20927581 au
    Multiplicity: Singlet
    Trans. Mom.: -0.0109 X  -0.0010 Y   0.1325 Z
    Strength   :     0.0021733422
    D(   31) --> V(    2) amplitude =  0.9960
 
 ---------------------------------------------------
 Calculating Relaxed Density
 ---------------------------------------------------
 Iter    Rts Conv    Rts Left    Ttl Dev     Max Dev
 ---------------------------------------------------
   1         0           3      0.001716    0.000886
   2         0           3      0.000638    0.000280
   3         0           3      0.000145    0.000069
   4         0           3      0.000036    0.000020
   5         0           3      0.000007    0.000003
   6         3           0      0.000000    0.000000    Roots Converged
 ---------------------------------------------------
  SETman timing summary (seconds)
  CPU time               158.21s
  System time              0.00s
  Wall time               39.84s
 
 --------------------------------------------------------------
 
                    Orbital Energies (a.u.)
 --------------------------------------------------------------
 
 Alpha MOs
 -- Occupied --
-14.4388 -10.2612 -10.2600 -10.2301 -10.2260 -10.2256 -10.2250 -10.2211
-10.2155  -0.9985  -0.8430  -0.7926  -0.7399  -0.7242  -0.6315  -0.6003
 -0.5846  -0.5404  -0.4894  -0.4700  -0.4350  -0.4297  -0.4233  -0.4085
 -0.3943  -0.3533  -0.3345  -0.3290  -0.2786  -0.2185  -0.2021
 -- Virtual --
 -0.0311  -0.0058   0.0069   0.0139   0.0193   0.0343   0.0359   0.0379
  0.0556   0.0572   0.0634   0.0638   0.0818   0.0853   0.1038   0.1048
  0.1082   0.1227   0.1309   0.1349   0.1510   0.1546   0.1620   0.1621
  0.1679   0.1790   0.1827   0.1829   0.1926   0.1950   0.1966   0.1974
  0.2150   0.2199   0.2276   0.2321   0.2353   0.2416   0.2526   0.2579
  0.2678   0.2701   0.2753   0.2895   0.2927   0.3004   0.3108   0.3256
  0.3415   0.3597   0.3715   0.3932   0.4211   0.4453   0.5083   0.5643
  0.6018   0.6739   0.6774   0.7022   0.7116   0.7242   0.7280   0.7354
  0.7403   0.7560   0.7573   0.7798   0.7938   0.7942   0.8138   0.8541
  0.8919   0.9002   0.9119   0.9400   0.9457   0.9551   0.9624   0.9876
  0.9965   1.0320   1.0498   1.0637   1.0916   1.1085   1.1110   1.1666
  1.1772   1.2018   1.2226   1.2312   1.2425   1.3135   1.3161   1.3385
  1.3635   1.4045   1.4078   1.4409   1.4575   1.4674   1.4905   1.4927
  1.5335   1.5816   1.6408   1.7844   1.8276   1.8794   1.8906   1.9124
  1.9254   1.9886   1.9905   2.0007   2.0457   2.0573   2.1271   2.1336
  2.1490   2.1939   2.2348   2.2372   2.2583   2.2664   2.3031   2.3600
  2.4087   2.4454   2.5365   2.5483   2.6277   2.6379   2.6483   2.6776
  2.7178   2.7944   2.8292   2.8435   2.9616   2.9674   3.0998   3.2361
  3.3974   4.1592   4.2562   4.3025   4.3372   4.3745   4.4105   4.4900
  4.5313   4.7861
 --------------------------------------------------------------
 
          Ground-State Mulliken Net Atomic Charges

     Atom                 Charge (a.u.)
  ----------------------------------------
      1 C                    -0.012368
      2 C                    -0.497013
      3 C                    -0.155165
      4 C                    -1.100402
      5 C                     1.483133
      6 C                    -0.774979
      7 N                    -0.455257
      8 C                     0.026132
      9 C                    -0.220546
     10 H                     0.436040
     11 H                     0.218503
     12 H                     0.219828
     13 H                     0.207272
     14 H                     0.207618
     15 H                     0.203863
     16 H                     0.213343
  ----------------------------------------
  Sum of atomic charges =     0.000000

 -----------------------------------------------------------------
                    Cartesian Multipole Moments
 -----------------------------------------------------------------
    Charge (ESU x 10^10)
                -0.0000
    Dipole Moment (Debye)
         X      -1.6311      Y       1.5830      Z      -0.0017
       Tot       2.2730
    Quadrupole Moments (Debye-Ang)
        XX     -44.6344     XY      -3.1907     YY     -43.9249
        XZ       0.0008     YZ      -0.0069     ZZ     -59.1072
    Octopole Moments (Debye-Ang^2)
       XXX     -15.7392    XXY       8.5513    XYY      -7.8280
       YYY      10.3168    XXZ      -0.0086    XYZ       0.0015
       YYZ      -0.0290    XZZ      -2.4357    YZZ       2.0900
       ZZZ      -0.0298
    Hexadecapole Moments (Debye-Ang^3)
      XXXX    -810.6912   XXXY     -22.8022   XXYY    -196.6386
      XYYY     -20.8400   YYYY    -371.1710   XXXZ       0.0213
      XXYZ      -0.0814   XYYZ       0.0241   YYYZ      -0.1012
      XXZZ    -191.5105   XYZZ      -4.5353   YYZZ     -95.0729
      XZZZ       0.0322   YZZZ      -0.0748   ZZZZ     -72.9218
 -----------------------------------------------------------------
 Calculating analytic gradient of the CIS energy
 CIS relaxed dipole moment
            1
    1   2.3898604
    2  -2.6546640
    3  -0.0097637
	Magnitude:	 3.572 au	 9.079 Debye
 CIS 3 State Energy is -363.2092758107
 Gradient of the state energy (including CIS Excitation Energy)
            1           2           3           4           5           6
    1   0.0102262   0.0058493   0.0148595  -0.0126632  -0.0001358  -0.0138113
    2  -0.0135956   0.0294141   0.0113717   0.0164679  -0.0185671  -0.0115610
    3   0.0004516  -0.0004162   0.0001821   0.0010872  -0.0007807  -0.0004083
            7           8           9          10          11          12
    1   0.0273434  -0.0218623  -0.0279231   0.0132837   0.0002319   0.0034047
    2   0.0582984   0.0138710  -0.0543511  -0.0298948   0.0012961  -0.0038315
    3  -0.0005831   0.0002696   0.0002704  -0.0001124  -0.0000064  -0.0000027
           13          14          15          16
    1   0.0001604   0.0017070  -0.0001703  -0.0005000
    2   0.0001749   0.0010469  -0.0001875   0.0000475
    3  -0.0000137  -0.0000559   0.0000283   0.0000901
 Gradient time:  CPU 35.65 s  wall 8.97 s
 Geometry Optimization Parameters
   NAtoms,    NIC,     NZ,  NCons,   NDum,   NFix, NCnnct, MaxDiis
       16     116       0       0       0       0       0       0

 Cartesian Hessian Update
 Hessian updated using BFGS update


** GEOMETRY OPTIMIZATION IN DELOCALIZED INTERNAL COORDINATES **
   Searching for a Minimum

   Optimization Cycle:  50

                       Coordinates (Angstroms)
     ATOM                X               Y               Z
      1  C         2.1726396911   -0.6884548782    0.0009802056
      2  C         2.1561195627    0.7302344034   -0.0003890458
      3  C         0.9307239897    1.4406319350    0.0013878997
      4  C        -0.2481998757    0.6819348735    0.0020997821
      5  C        -0.2561869146   -0.7669222668   -0.0014814728
      6  C         0.9665826328   -1.4501333404   -0.0018002440
      7  N        -1.5604842359    1.0692785049   -0.0012289126
      8  C        -1.6257810442   -1.1713604677    0.0007228096
      9  C        -2.4037105287   -0.0286848231    0.0011167927
     10  H        -1.8768100985    2.0267307500   -0.0019015283
     11  H        -2.0051485925   -2.1851743891    0.0006484422
     12  H        -3.4769806304    0.0950024020    0.0009455449
     13  H         3.0925233776    1.2791946102   -0.0007750576
     14  H         0.9090946304    2.5265968256    0.0005402282
     15  H         3.1242596952   -1.2109482016    0.0013248381
     16  H         1.0044532920   -2.5353734452   -0.0016643008
   Point Group: c1    Number of degrees of freedom:    42


   Energy is   -363.209275811

 Hessian updated using BFGS update

 42 Hessian modes will be used to form the next step
  Hessian Eigenvalues:
     0.018811    0.020014    0.020332    0.021303    0.022091    0.022514
     0.022951    0.023108    0.023681    0.023864    0.023977    0.024121
     0.145681    0.159894    0.159912    0.160132    0.160234    0.160611
     0.160881    0.162981    0.220652    0.225847    0.241849    0.248540
     0.300075    0.356990    0.357167    0.357702    0.358002    0.364319
     0.364627    0.373872    0.404568    0.423149    0.429616    0.453447
     0.468003    0.479693    0.486371    0.578173    0.899494    1.369516

 Minimum search - taking simple RFO step
 Searching for Lamda that Minimizes Along All modes
 Value Taken    Lamda =  -0.00616064
 Step Taken.  Stepsize is  0.082202

                             Maximum     Tolerance    Cnvgd?
         Gradient           0.038690      0.000300      NO
         Displacement       0.037332      0.001200      NO
         Energy change      0.001434      0.000001      NO


 New Cartesian Coordinates Obtained by Inverse Iteration

 Displacement from previous Coordinates is:  0.102524
 ----------------------------------------------------------------
             Standard Nuclear Orientation (Angstroms)
    I     Atom           X                Y                Z
 ----------------------------------------------------------------
    1      C       2.1719080879    -0.6928509176    -0.0001604295
    2      C       2.1461517477     0.7195048989     0.0012546365
    3      C       0.9214355892     1.4292824694    -0.0006241988
    4      C      -0.2499893198     0.6763035074    -0.0016836760
    5      C      -0.2505946088    -0.7664014457    -0.0001784706
    6      C       0.9764103112    -1.4496817456     0.0006045354
    7      N      -1.5683785918     1.0696200979    -0.0008907186
    8      C      -1.6110446085    -1.1727766140    -0.0001188197
    9      C      -2.3925939383    -0.0131567260     0.0001816577
   10      H      -1.8961018030     2.0406915492     0.0017948804
   11      H      -1.9939271846    -2.1857064585    -0.0000033725
   12      H      -3.4682276672     0.1136874998     0.0006573650
   13      H       3.0801710713     1.2723904293     0.0019694241
   14      H       0.8992953720     2.5148129105    -0.0010242525
   15      H       3.1278611354    -1.2079988577    -0.0018292960
   16      H       1.0107193584    -2.5351681048     0.0005767163
 ----------------------------------------------------------------
 Molecular Point Group                 C1    NOp =  1
 Largest Abelian Subgroup              C1    NOp =  1
 Nuclear Repulsion Energy =         398.75183220 hartrees
 There are       31 alpha and       31 beta electrons


 *******************************************
 **  MAXIMUM OPTIMIZATION CYCLES REACHED  **
 *******************************************

 Q-Chem fatal error occurred in module 0, line  455:

 Maximum optimization cycles reached

