
Running Job 1 of 1 QfuncsPBE-VII-2nd.in
qchem QfuncsPBE-VII-2nd.in_94351.0 /scratch/scaparas/job_3624013/qchem94351/ 0
/cm/shared/apps/spack/cpu/opt/spack/linux-centos8-zen2/gcc-10.2.0/qchem-5.3-5qddma6gy34jvefiv7mbcb7qm253n45r/exe/qcprog.exe_s QfuncsPBE-VII-2nd.in_94351.0 /scratch/scaparas/job_3624013/qchem94351/
                  Welcome to Q-Chem
     A Quantum Leap Into The Future Of Chemistry


 Q-Chem 5.3, Q-Chem, Inc., Pleasanton, CA (2020)

 License issued to: University of California, San Diego (site)

 Yihan Shao,  Zhengting Gan,  E. Epifanovsky,  A. T. B. Gilbert,  M. Wormit,  
 J. Kussmann,  A. W. Lange,  A. Behn,  Jia Deng,  Xintian Feng,  D. Ghosh,  
 M. Goldey,  P. R. Horn,  L. D. Jacobson,  I. Kaliman,  T. Kus,  A. Landau,  
 Jie Liu,  E. I. Proynov,  R. M. Richard,  R. P. Steele,  E. J. Sundstrom,  
 H. L. Woodcock III,  P. M. Zimmerman,  D. Zuev,  B. Alam,  B. Albrecht,  
 A. Aldossary,  E. Alguire,  S. A. Baeppler,  D. Barton,  Z. Benda,  
 Y. A. Bernard,  E. J. Berquist,  K. B. Bravaya,  H. Burton,  K. Carter-Fenk,  
 D. Casanova,  Chun-Min Chang,  Yunqing Chen,  A. Chien,  K. D. Closser,  
 M. P. Coons,  S. Coriani,  S. Dasgupta,  A. L. Dempwolff,  M. Diedenhofen,  
 Hainam Do,  R. G. Edgar,  Po-Tung Fang,  S. Faraji,  S. Fatehi,  
 Qingguo Feng,  J. Fosso-Tande,  J. Gayvert,  Qinghui Ge,  A. Ghysels,  
 G. Gidofalvi,  J. Gomes,  J. Gonthier,  S. Gulania,  A. Gunina,  D. Hait,  
 M. W. D. Hanson-Heine,  S. Hammes-Schiffer,  P. H. P. Harbach,  
 A. W. Hauser,  M. F. Herbst,  J. E. Herr,  E. G. Hohenstein,  Z. C. Holden,  
 S. Houck,  Kerwin Hui,  B. C. Huynh,  M. Ivanov,  T.-C. Jagau,  Hyunjun Ji,  
 B. Kaduk,  K. Khistyaev,  Jaehoon Kim,  P. Klunzinger,  K. Koh,  
 D. Kosenkov,  L. Koulias,  T. Kowalczyk,  C. M. Krauter,  A. Kunitsa,  
 Ka Un Lao,  A. Laurent,  K. V. Lawler,  Joonho Lee,  D. Lefrancois,  
 S. Lehtola,  D. S. Levine,  Yi-Pei Li,  You-Sheng Lin,  Fenglai Liu,  
 Kuan-Yu Liu,  E. Livshits,  M. Loipersberger,  A. Luenser,  P. Manohar,  
 E. Mansoor,  S. F. Manzer,  Shan-Ping Mao,  Yuezhi Mao,  N. Mardirossian,  
 A. V. Marenich,  T. Markovich,  L. A. Martinez-Martinez,  S. A. Maurer,  
 N. J. Mayhall,  S. C. McKenzie,  J.-M. Mewes,  P. Morgante,  A. F. Morrison,  
 J. W. Mullinax,  K. Nanda,  T. S. Nguyen-Beck,  R. Olivares-Amaya,  
 K. J. Oosterbaan,  J. A. Parkhill,  S. K. Paul,  F. Pavosevic,  Zheng Pei,  
 T. M. Perrine,  F. Plasser,  P. Pokhilko,  S. Prager,  A. Prociuk,  
 E. Ramos,  B. Rana,  D. R. Rehn,  F. Rob,  E. Rossomme,  M. Scheurer,  
 M. Schneider,  N. Sergueev,  S. M. Sharada,  S. Sharma,  W. Skomorowski,  
 D. W. Small,  T. Stauch,  C. J. Stein,  T. Stein,  Yu-Chuan Su,  
 S. P. Veccham,  Zhen Tao,  A. J. W. Thom,  A. Tkatchenko,  T. Tsuchimochi,  
 N. M. Tubman,  L. Vogt,  M. L. Vidal,  O. Vydrov,  M. A. Watson,  J. Wenzel,  
 M. de Wergifosse,  T. A. Wesolowski,  A. White,  J. Witte,  A. Yamada,  
 Jun Yang,  K. Yao,  S. Yeganeh,  S. R. Yost,  Zhi-Qiang You,  A. Zech,  
 Igor Ying Zhang,  Xing Zhang,  Yan Zhao,  Ying Zhu,  B. R. Brooks,  
 G. K. L. Chan,  C. J. Cramer,  M. S. Gordon,  W. J. Hehre,  A. Klamt,  
 M. W. Schmidt,  C. D. Sherrill,  D. G. Truhlar,  A. Aspuru-Guzik,  R. Baer,  
 A. T. Bell,  N. A. Besley,  Jeng-Da Chai,  A. E. DePrince, III,  
 R. A. DiStasio Jr.,  A. Dreuw,  B. D. Dunietz,  T. R. Furlani,  
 Chao-Ping Hsu,  Yousung Jung,  Jing Kong,  D. S. Lambrecht,  WanZhen Liang,  
 C. Ochsenfeld,  V. A. Rassolov,  L. V. Slipchenko,  J. E. Subotnik,  
 T. Van Voorhis,  J. M. Herbert,  A. I. Krylov,  P. M. W. Gill,  M. Head-Gordon

 Contributors to earlier versions of Q-Chem not listed above: 
 R. D. Adamson,  B. Austin,  J. Baker,  G. J. O. Beran,  K. Brandhorst,  
 S. T. Brown,  E. F. C. Byrd,  A. K. Chakraborty,  C.-L. Cheng,  
 Siu Hung Chien,  D. M. Chipman,  D. L. Crittenden,  H. Dachsel,  
 R. J. Doerksen,  A. D. Dutoi,  L. Fusti-Molnar,  W. A. Goddard III,  
 A. Golubeva-Zadorozhnaya,  S. R. Gwaltney,  G. Hawkins,  A. Heyden,  
 S. Hirata,  G. Kedziora,  F. J. Keil,  C. Kelley,  Jihan Kim,  R. A. King,  
 R. Z. Khaliullin,  P. P. Korambath,  W. Kurlancheek,  A. M. Lee,  M. S. Lee,  
 S. V. Levchenko,  Ching Yeh Lin,  D. Liotard,  R. C. Lochan,  I. Lotan,  
 P. E. Maslen,  N. Nair,  D. P. O'Neill,  D. Neuhauser,  E. Neuscamman,  
 C. M. Oana,  R. Olson,  B. Peters,  R. Peverati,  P. A. Pieniazek,  
 Y. M. Rhee,  J. Ritchie,  M. A. Rohrdanz,  E. Rosta,  N. J. Russ,  
 H. F. Schaefer III,  N. E. Schultz,  N. Shenvi,  A. C. Simmonett,  A. Sodt,  
 D. Stuck,  K. S. Thanthiriwatte,  V. Vanovschi,  Tao Wang,  A. Warshel,  
 C. F. Williams,  Q. Wu,  X. Xu,  W. Zhang

 Please cite Q-Chem as follows:
 Y. Shao et al., Mol. Phys. 113, 184-215 (2015)
 DOI: 10.1080/00268976.2014.952696

 Q-Chem 5.3.1 for Intel X86 EM64T Linux

 Parts of Q-Chem use Armadillo 9.800.1 (Horizon Scraper).
 http://arma.sourceforge.net/

 Q-Chem begins on Fri Jun 25 07:28:35 2021  

Host: 
0

     Scratch files written to /scratch/scaparas/job_3624013/qchem94351//
 Aug2920 |scratch|qcdevops|jenkins|workspace|build_RNUM    
Processing $rem in /cm/shared/apps/spack/cpu/opt/spack/linux-centos8-zen2/gcc-10.2.0/qchem-5.3-5qddma6gy34jvefiv7mbcb7qm253n45r/config/preferences:
Processing $rem in /home/scaparas/.qchemrc:

Checking the input file for inconsistencies... 	...done.

--------------------------------------------------------------
User input:
--------------------------------------------------------------
$molecule
0 1
C   -2.1510630    0.6892080    0.0000880
C   -2.1279270   -0.7158180    0.0000750
C   -0.9322970   -1.4131000   -0.0000110
C    0.2469110   -0.6702010   -0.0000420
C    0.2481930    0.7482990    0.0000000
C   -0.9794740    1.4235260    0.0000320
N    1.5617740   -1.0775920   -0.0002850
C    1.6201330    1.1629000   -0.0001570
C    2.3820130    0.0308060    0.0002480
H    1.8763150   -2.0300110    0.0004380
H    1.9921730    2.1730100   -0.0003480
H    3.4525490   -0.0824250    0.0004080
H   -3.0615940   -1.2620200    0.0000880
H   -0.9172520   -2.4953420   -0.0000730
H   -3.1042030    1.2007850    0.0000900
H   -1.0093480    2.5054210   -0.0000150
$end

$rem
BASIS  =  6-31+G*
GUI  =  2
JOB_TYPE  =  Optimization
METHOD  = PBE
SCF_CONVERGENCE  =  8
THRESH = 12
CIS_N_ROOTS  = 3
CIS_SINGLETS = true
CIS_TRIPLETS = false
CIS_STATE_DERIV = 2
MEM_STATIC = 500
MEM_TOTAL = 3000
$end
--------------------------------------------------------------
 ----------------------------------------------------------------
             Standard Nuclear Orientation (Angstroms)
    I     Atom           X                Y                Z
 ----------------------------------------------------------------
    1      C       2.1510629040    -0.6892079969     0.0000583065
    2      C       2.1279268385     0.7158180020     0.0000481775
    3      C       0.9322968051     1.4130999466    -0.0000206639
    4      C      -0.2469111607     0.6702008918    -0.0000373513
    5      C      -0.2481930942    -0.7482991083     0.0000020775
    6      C       0.9794739374    -1.4235260513     0.0000165335
    7      N      -1.5617741827     1.0775918311    -0.0002621374
    8      C      -1.6201330769    -1.1629001718    -0.0001374500
    9      C      -2.3820131241    -0.0308062080     0.0002797387
   10      H      -1.8763152174     2.0300108152     0.0004667797
   11      H      -1.9921730325    -2.1730101887    -0.0003253498
   12      H      -3.4525491271     0.0824247420     0.0004541695
   13      H       3.0615938132     1.2620200454     0.0000497686
   14      H       0.9172517540     2.4953419460    -0.0000804893
   15      H       3.1042029277    -1.2007849526     0.0000467087
   16      H       1.0093479871    -2.5054210498    -0.0000328375
 ----------------------------------------------------------------
 Molecular Point Group                 C1    NOp =  1
 Largest Abelian Subgroup              C1    NOp =  1
 Nuclear Repulsion Energy =         401.33686680 hartrees
 There are       31 alpha and       31 beta electrons
 Requested basis set is 6-31+G(d)
 There are 59 shells and 185 basis functions

 Total QAlloc Memory Limit   3000 MB
 Mega-Array Size       489 MB
 MEM_STATIC part       500 MB
 A cutoff of  1.0D-12 yielded   1657 shell pairs
 There are     17105 function pairs
 Smallest overlap matrix eigenvalue = 1.26E-06

 Scale SEOQF with 1.000000e-01/1.000000e-01/1.000000e-01

 Standard Electronic Orientation quadrupole field applied
 Nucleus-field energy     =     0.0000000117 hartrees
 Guess from superposition of atomic densities
 Warning:  Energy on first SCF cycle will be non-variational
 SAD guess density has 62.000000 electrons

 -----------------------------------------------------------------------
  General SCF calculation program by
  Eric Jon Sundstrom, Paul Horn, Yuezhi Mao, Dmitri Zuev, Alec White,
  David Stuck, Shaama M.S., Shane Yost, Joonho Lee, David Small,
  Daniel Levine, Susi Lehtola, Hugh Burton, Evgeny Epifanovsky,
  Bang C. Huynh
 -----------------------------------------------------------------------
 Exchange:  PBE      Correlation:  PBE
 Using SG-1 standard quadrature grid
 using 4 threads for integral computing
 -------------------------------------------------------
 OpenMP Integral computing Module                
 Release: version 1.0, May 2013, Q-Chem Inc. Pittsburgh 
 -------------------------------------------------------
 A restricted SCF calculation will be
 performed using DIIS
 SCF converges when DIIS error is below 1.0e-08
 ---------------------------------------
  Cycle       Energy         DIIS error
 ---------------------------------------
    1    -365.2983991168      5.45e-02  
    2    -363.1683557890      6.30e-03  
    3    -362.9168636879      9.44e-03  
    4    -363.3375867048      2.59e-03  
    5    -363.3671655607      8.18e-04  
    6    -363.3699261976      2.94e-04  
    7    -363.3702585284      1.25e-04  
    8    -363.3703251034      3.64e-05  
    9    -363.3703308991      6.17e-06  
   10    -363.3703310242      3.61e-06  
   11    -363.3703310832      7.28e-07  
   12    -363.3703310851      4.26e-07  
   13    -363.3703310859      7.42e-08  
   14    -363.3703310859      3.37e-08  
   15    -363.3703310859      3.59e-09  Convergence criterion met
 ---------------------------------------
 SCF time:   CPU 38.91s  wall 10.00s 
 SCF   energy in the final basis set =     -363.3703310859
 Total energy in the final basis set =     -363.3703310859
 
 Direct TDDFT/TDA calculation will be performed
 Exchange:  PBE      Correlation:  PBE
 Using SG-1 standard quadrature grid
 Singlet excitation energies requested
 CIS energy converged when residual is below 10e- 6
 ---------------------------------------------------
 Iter    Rts Conv    Rts Left    Ttl Dev     Max Dev
 ---------------------------------------------------
   1         0           3      0.003914    0.001939
   2         0           3      0.002977    0.001483
   3         0           3      0.002972    0.001497
   4         0           3      0.002102    0.001408
   5         0           3      0.001542    0.001282
   6         0           3      0.000402    0.000336
   7         1           2      0.000316    0.000304
   8         1           2      0.000031    0.000029
   9         2           1      0.000006    0.000006
  10         2           1      0.000002    0.000001
  11         3           0      0.000000    0.000000    Roots Converged
 ---------------------------------------------------
 
 ---------------------------------------------------
         TDDFT/TDA Excitation Energies              
 ---------------------------------------------------

 Excited state   1: excitation energy (eV) =    4.5743
 Total energy for state  1:                  -363.20222801 au
    Multiplicity: Singlet
    Trans. Mom.: -0.0302 X   0.0366 Y   0.1087 Z
    Strength   :     0.0015769030
    D(   31) --> V(    2) amplitude =  0.9975

 Excited state   2: excitation energy (eV) =    4.5774
 Total energy for state  2:                  -363.20211371 au
    Multiplicity: Singlet
    Trans. Mom.:  0.4636 X  -0.5632 Y   0.0070 Z
    Strength   :     0.0596787494
    D(   29) --> V(    1) amplitude = -0.2517
    D(   31) --> V(    1) amplitude =  0.8895

 Excited state   3: excitation energy (eV) =    4.7538
 Total energy for state  3:                  -363.19563396 au
    Multiplicity: Singlet
    Trans. Mom.: -0.3475 X  -0.1152 Y   0.0001 Z
    Strength   :     0.0156106282
    D(   30) --> V(    1) amplitude =  0.7428
    D(   31) --> V(    3) amplitude = -0.6536
 
 ---------------------------------------------------
 Calculating Relaxed Density
 ---------------------------------------------------
 Iter    Rts Conv    Rts Left    Ttl Dev     Max Dev
 ---------------------------------------------------
   1         0           3      0.002370    0.001214
   2         0           3      0.000838    0.000407
   3         0           3      0.000230    0.000113
   4         0           3      0.000082    0.000041
   5         0           3      0.000012    0.000005
   6         3           0      0.000000    0.000000    Roots Converged
 ---------------------------------------------------
  SETman timing summary (seconds)
  CPU time               155.76s
  System time              0.00s
  Wall time               39.23s
 
 --------------------------------------------------------------
 
                    Orbital Energies (a.u.)
 --------------------------------------------------------------
 
 Alpha MOs
 -- Occupied --
-14.0571  -9.9331  -9.9317  -9.9026  -9.8989  -9.8966  -9.8965  -9.8922
 -9.8907  -0.9054  -0.7664  -0.7139  -0.6688  -0.6512  -0.5679  -0.5402
 -0.5267  -0.4895  -0.4348  -0.4225  -0.3924  -0.3831  -0.3793  -0.3655
 -0.3480  -0.3121  -0.2987  -0.2934  -0.2491  -0.2007  -0.1839
 -- Virtual --
 -0.0421  -0.0160  -0.0081   0.0043   0.0111   0.0202   0.0262   0.0284
  0.0460   0.0478   0.0545   0.0570   0.0726   0.0754   0.0952   0.0981
  0.0994   0.1122   0.1203   0.1243   0.1409   0.1417   0.1480   0.1500
  0.1572   0.1621   0.1689   0.1703   0.1805   0.1823   0.1842   0.1853
  0.2016   0.2058   0.2147   0.2204   0.2211   0.2276   0.2377   0.2422
  0.2548   0.2585   0.2614   0.2721   0.2755   0.2835   0.2944   0.3079
  0.3251   0.3374   0.3465   0.3679   0.3911   0.4141   0.4743   0.5370
  0.5774   0.6311   0.6374   0.6561   0.6723   0.6775   0.6852   0.6929
  0.6950   0.7088   0.7099   0.7326   0.7469   0.7521   0.7694   0.8077
  0.8444   0.8505   0.8618   0.8860   0.8916   0.9034   0.9072   0.9346
  0.9519   0.9830   1.0018   1.0112   1.0518   1.0674   1.0694   1.1248
  1.1332   1.1581   1.1761   1.1789   1.2027   1.2595   1.2652   1.2800
  1.3183   1.3510   1.3664   1.3954   1.3977   1.4034   1.4330   1.4382
  1.4855   1.5323   1.5924   1.7229   1.7774   1.8140   1.8236   1.8524
  1.8812   1.9233   1.9268   1.9347   1.9907   2.0268   2.0710   2.0996
  2.1014   2.1257   2.1747   2.1872   2.1921   2.2160   2.2432   2.3060
  2.3333   2.3740   2.4739   2.4808   2.5628   2.5844   2.5924   2.6219
  2.6583   2.7318   2.7705   2.7786   2.8778   2.9041   3.0296   3.1596
  3.3646   4.0590   4.1727   4.2026   4.2370   4.2726   4.3076   4.3913
  4.4303   4.6989
 --------------------------------------------------------------
 
          Ground-State Mulliken Net Atomic Charges

     Atom                 Charge (a.u.)
  ----------------------------------------
      1 C                     0.081362
      2 C                    -0.533204
      3 C                    -0.131062
      4 C                    -1.223589
      5 C                     1.678458
      6 C                    -0.837629
      7 N                    -0.428708
      8 C                     0.121482
      9 C                    -0.265360
     10 H                     0.412277
     11 H                     0.194565
     12 H                     0.196344
     13 H                     0.182748
     14 H                     0.182626
     15 H                     0.181489
     16 H                     0.188202
  ----------------------------------------
  Sum of atomic charges =     0.000000

 -----------------------------------------------------------------
                    Cartesian Multipole Moments
 -----------------------------------------------------------------
    Charge (ESU x 10^10)
                -0.0000
    Dipole Moment (Debye)
         X      -1.5418      Y       1.5876      Z       0.0010
       Tot       2.2130
    Quadrupole Moments (Debye-Ang)
        XX     -45.5657     XY      -3.2213     YY     -44.6134
        XZ      -0.0030     YZ       0.0031     ZZ     -58.5216
    Octopole Moments (Debye-Ang^2)
       XXX     -14.4460    XXY       8.1516    XYY      -8.1988
       YYY      10.5035    XXZ       0.0070    XYZ      -0.0064
       YYZ       0.0019    XZZ      -1.9782    YZZ       2.0069
       ZZZ      -0.0011
    Hexadecapole Moments (Debye-Ang^3)
      XXXX    -820.6639   XXXY     -21.5319   XXYY    -197.0218
      XYYY     -19.7294   YYYY    -373.2352   XXXZ      -0.0229
      XXYZ       0.0124   XYYZ      -0.0067   YYYZ       0.0136
      XXZZ    -188.4192   XYZZ      -3.9643   YYZZ     -93.4796
      XZZZ      -0.0007   YZZZ       0.0027   ZZZZ     -72.8441
 -----------------------------------------------------------------
 Calculating analytic gradient of the CIS energy
 CIS relaxed dipole moment
            1
    1  -1.9027780
    2   0.4049561
    3   0.0622513
	Magnitude:	 1.946 au	 4.947 Debye
 CIS 2 State Energy is -363.2021137137
 Gradient of the state energy (including CIS Excitation Energy)
            1           2           3           4           5           6
    1  -0.0235382  -0.0314785   0.0213418  -0.0161587  -0.0060984   0.0114158
    2  -0.0298056   0.0323735  -0.0401470   0.0358566  -0.0289256   0.0365259
    3  -0.0000192  -0.0000196   0.0004000  -0.0002047   0.0002202   0.0003111
            7           8           9          10          11          12
    1   0.0243716  -0.0210871   0.0374342   0.0060205   0.0041986   0.0091226
    2   0.0279323   0.0239420  -0.0510199  -0.0144031   0.0092086  -0.0015812
    3  -0.0007471  -0.0002204   0.0002401   0.0003918  -0.0000195   0.0000788
           13          14          15          16
    1  -0.0081582   0.0006545  -0.0082543   0.0002137
    2  -0.0043209  -0.0090307   0.0042477   0.0091472
    3  -0.0000371  -0.0001947  -0.0000463  -0.0001334
 Gradient time:  CPU 30.45 s  wall 7.86 s
 Geometry Optimization Parameters
   NAtoms,    NIC,     NZ,  NCons,   NDum,   NFix, NCnnct, MaxDiis
       16     116       0       0       0       0       0       0


** GEOMETRY OPTIMIZATION IN DELOCALIZED INTERNAL COORDINATES **
   Searching for a Minimum

   Optimization Cycle:   1

                       Coordinates (Angstroms)
     ATOM                X               Y               Z
      1  C         2.1510629040   -0.6892079969    0.0000583065
      2  C         2.1279268385    0.7158180020    0.0000481775
      3  C         0.9322968051    1.4130999466   -0.0000206639
      4  C        -0.2469111607    0.6702008918   -0.0000373513
      5  C        -0.2481930942   -0.7482991083    0.0000020775
      6  C         0.9794739374   -1.4235260513    0.0000165335
      7  N        -1.5617741827    1.0775918311   -0.0002621374
      8  C        -1.6201330769   -1.1629001718   -0.0001374500
      9  C        -2.3820131241   -0.0308062080    0.0002797387
     10  H        -1.8763152174    2.0300108152    0.0004667797
     11  H        -1.9921730325   -2.1730101887   -0.0003253498
     12  H        -3.4525491271    0.0824247420    0.0004541695
     13  H         3.0615938132    1.2620200454    0.0000497686
     14  H         0.9172517540    2.4953419460   -0.0000804893
     15  H         3.1042029277   -1.2007849526    0.0000467087
     16  H         1.0093479871   -2.5054210498   -0.0000328375
   Point Group: c1    Number of degrees of freedom:    42


   Energy is   -363.202113714


 Attempting to generate delocalized internal coordinates
 Initial Hessian constructed with Jon Baker's OPTIMIZE code

 42 Hessian modes will be used to form the next step
  Hessian Eigenvalues:
     0.018594    0.019738    0.020011    0.020794    0.021683    0.022200
     0.022636    0.023004    0.023236    0.023608    0.023851    0.023984
     0.024127    0.160000    0.160000    0.160000    0.160000    0.160000
     0.160000    0.160000    0.220000    0.221879    0.226618    0.240111
     0.246509    0.357123    0.357170    0.357835    0.357899    0.364196
     0.364272    0.370088    0.384319    0.426334    0.434649    0.457693
     0.466917    0.471622    0.474685    0.475669    0.481247    0.509555

 Minimum search - taking simple RFO step
 Searching for Lamda that Minimizes Along All modes
 Value Taken    Lamda =  -0.02571872
 Step Taken.  Stepsize is  0.245300

                             Maximum     Tolerance    Cnvgd?
         Gradient           0.054180      0.000300      NO
         Displacement       0.114840      0.001200      NO
         Energy change     *********      0.000001      NO


 New Cartesian Coordinates Obtained by Inverse Iteration

 Displacement from previous Coordinates is:  0.382626
 ----------------------------------------------------------------
             Standard Nuclear Orientation (Angstroms)
    I     Atom           X                Y                Z
 ----------------------------------------------------------------
    1      C       2.2030844764    -0.6911682757    -0.0008876953
    2      C       2.1735553451     0.7149627035    -0.0004272654
    3      C       0.9363254217     1.4416429733    -0.0002312701
    4      C      -0.2458892010     0.6529702544     0.0008533932
    5      C      -0.2361984580    -0.7540783431     0.0000818569
    6      C       1.0057966915    -1.4643849245    -0.0012140858
    7      N      -1.5998477824     1.0592603160     0.0011261015
    8      C      -1.6403114564    -1.1577944210     0.0015653020
    9      C      -2.4572227383    -0.0048494202     0.0000264448
   10      H      -1.9099143670     2.0305397883    -0.0014061409
   11      H      -2.0159062673    -2.1811893534     0.0014069055
   12      H      -3.5387893491     0.1225467969    -0.0017873444
   13      H       3.1189834352     1.2662560613     0.0004087547
   14      H       0.9053004142     2.5360432140     0.0016655746
   15      H       3.1726057427    -1.1991871939    -0.0003643415
   16      H       1.0315230439    -2.5590176833    -0.0002902086
 ----------------------------------------------------------------
 Molecular Point Group                 C1    NOp =  1
 Largest Abelian Subgroup              C1    NOp =  1
 Nuclear Repulsion Energy =         394.84402071 hartrees
 There are       31 alpha and       31 beta electrons
 Applying Cartesian multipole field
    Component          Value
    ---------          -----
     (2,0,0)        1.00000E-11
     (0,2,0)        2.00000E-11
     (0,0,2)       -3.00000E-11
 Nucleus-field energy     =     0.0000000121 hartrees
 Requested basis set is 6-31+G(d)
 There are 59 shells and 185 basis functions
 A cutoff of  1.0D-12 yielded   1656 shell pairs
 There are     17099 function pairs
 Smallest overlap matrix eigenvalue = 1.46E-06
 Guess MOs from SCF MO coefficient file

 -----------------------------------------------------------------------
  General SCF calculation program by
  Eric Jon Sundstrom, Paul Horn, Yuezhi Mao, Dmitri Zuev, Alec White,
  David Stuck, Shaama M.S., Shane Yost, Joonho Lee, David Small,
  Daniel Levine, Susi Lehtola, Hugh Burton, Evgeny Epifanovsky,
  Bang C. Huynh
 -----------------------------------------------------------------------
 Exchange:  PBE      Correlation:  PBE
 Using SG-1 standard quadrature grid
 using 4 threads for integral computing
 -------------------------------------------------------
 OpenMP Integral computing Module                
 Release: version 1.0, May 2013, Q-Chem Inc. Pittsburgh 
 -------------------------------------------------------
 A restricted SCF calculation will be
 performed using DIIS
 SCF converges when DIIS error is below 1.0e-08
 ---------------------------------------
  Cycle       Energy         DIIS error
 ---------------------------------------
    1    -363.3597830749      1.09e-03  
    2    -363.3653286215      4.26e-04  
    3    -363.3651010406      4.85e-04  
    4    -363.3659396230      1.82e-04  
    5    -363.3660974021      4.52e-05  
    6    -363.3661065432      1.64e-05  
    7    -363.3661077478      2.40e-06  
    8    -363.3661077610      1.88e-06  
    9    -363.3661077792      1.92e-07  
   10    -363.3661077793      1.32e-07  
   11    -363.3661077794      1.47e-08  
   12    -363.3661077794      9.65e-09  Convergence criterion met
 ---------------------------------------
 SCF time:   CPU 30.90s  wall 8.00s 
 SCF   energy in the final basis set =     -363.3661077794
 Total energy in the final basis set =     -363.3661077794
 
 Direct TDDFT/TDA calculation will be performed
 Exchange:  PBE      Correlation:  PBE
 Using SG-1 standard quadrature grid
 Singlet excitation energies requested
 CIS energy converged when residual is below 10e- 6
 ---------------------------------------------------
 Iter    Rts Conv    Rts Left    Ttl Dev     Max Dev
 ---------------------------------------------------
   1         0           3      0.003896    0.001934
   2         0           3      0.003179    0.001645
   3         0           3      0.001724    0.001149
   4         0           3      0.000871    0.000656
   5         0           3      0.000229    0.000167
   6         1           2      0.000057    0.000041
   7         1           2      0.000010    0.000007
   8         2           1      0.000002    0.000001
   9         3           0      0.000001    0.000000    Roots Converged
 ---------------------------------------------------
 
 ---------------------------------------------------
         TDDFT/TDA Excitation Energies              
 ---------------------------------------------------

 Excited state   1: excitation energy (eV) =    4.0706
 Total energy for state  1:                  -363.21651683 au
    Multiplicity: Singlet
    Trans. Mom.: -0.5094 X   0.5675 Y  -0.0002 Z
    Strength   :     0.0579972926
    D(   29) --> V(    1) amplitude = -0.2896
    D(   31) --> V(    1) amplitude =  0.8992

 Excited state   2: excitation energy (eV) =    4.3678
 Total energy for state  2:                  -363.20559254 au
    Multiplicity: Singlet
    Trans. Mom.: -0.0026 X   0.0019 Y   0.1037 Z
    Strength   :     0.0011527607
    D(   31) --> V(    2) amplitude =  0.9996

 Excited state   3: excitation energy (eV) =    4.5571
 Total energy for state  3:                  -363.19863641 au
    Multiplicity: Singlet
    Trans. Mom.: -0.1146 X  -0.1692 Y   0.0001 Z
    Strength   :     0.0046653975
    D(   30) --> V(    1) amplitude =  0.7220
    D(   31) --> V(    3) amplitude =  0.6680
 
 ---------------------------------------------------
 Calculating Relaxed Density
 ---------------------------------------------------
 Iter    Rts Conv    Rts Left    Ttl Dev     Max Dev
 ---------------------------------------------------
   1         0           3      0.002731    0.001418
   2         0           3      0.000918    0.000496
   3         0           3      0.000260    0.000116
   4         0           3      0.000072    0.000039
   5         1           2      0.000009    0.000005
   6         2           1      0.000001    0.000001
   7         3           0      0.000000    0.000000    Roots Converged
 ---------------------------------------------------
  SETman timing summary (seconds)
  CPU time               144.27s
  System time              0.00s
  Wall time               36.35s
 
 --------------------------------------------------------------
 
                    Orbital Energies (a.u.)
 --------------------------------------------------------------
 
 Alpha MOs
 -- Occupied --
-14.0598  -9.9411  -9.9398  -9.9158  -9.9095  -9.9075  -9.9072  -9.9032
 -9.8974  -0.8977  -0.7595  -0.7013  -0.6686  -0.6437  -0.5672  -0.5343
 -0.5207  -0.4863  -0.4342  -0.4232  -0.3876  -0.3829  -0.3734  -0.3578
 -0.3503  -0.3112  -0.2991  -0.2960  -0.2413  -0.2070  -0.1776
 -- Virtual --
 -0.0532  -0.0173  -0.0124   0.0029   0.0109   0.0131   0.0241   0.0269
  0.0455   0.0480   0.0519   0.0545   0.0717   0.0745   0.0933   0.0954
  0.0961   0.1102   0.1183   0.1230   0.1339   0.1374   0.1452   0.1475
  0.1521   0.1545   0.1644   0.1652   0.1746   0.1800   0.1839   0.1842
  0.1967   0.1984   0.2105   0.2164   0.2191   0.2205   0.2318   0.2387
  0.2525   0.2531   0.2584   0.2617   0.2688   0.2755   0.2894   0.3032
  0.3170   0.3197   0.3274   0.3592   0.3705   0.4045   0.4563   0.5191
  0.5480   0.6300   0.6334   0.6552   0.6691   0.6742   0.6796   0.6821
  0.6906   0.7016   0.7076   0.7282   0.7361   0.7431   0.7566   0.8024
  0.8355   0.8420   0.8445   0.8827   0.8929   0.8987   0.9051   0.9285
  0.9422   0.9785   0.9955   1.0037   1.0480   1.0627   1.0673   1.1167
  1.1225   1.1555   1.1735   1.1780   1.1955   1.2552   1.2577   1.2846
  1.3036   1.3381   1.3429   1.3764   1.4035   1.4090   1.4192   1.4301
  1.4795   1.5126   1.5558   1.7194   1.7453   1.7776   1.8168   1.8233
  1.8464   1.8964   1.9064   1.9149   1.9437   1.9745   2.0396   2.0573
  2.0848   2.1154   2.1411   2.1674   2.1743   2.1801   2.2064   2.2714
  2.2920   2.3585   2.4269   2.4442   2.5383   2.5420   2.5671   2.5786
  2.6364   2.6901   2.7227   2.7528   2.8516   2.8732   2.9510   3.1242
  3.2802   4.0415   4.1408   4.1876   4.2262   4.2523   4.2997   4.3751
  4.4188   4.6690
 --------------------------------------------------------------
 
          Ground-State Mulliken Net Atomic Charges

     Atom                 Charge (a.u.)
  ----------------------------------------
      1 C                     0.030998
      2 C                    -0.444914
      3 C                    -0.301852
      4 C                    -1.276398
      5 C                     1.787477
      6 C                    -0.665190
      7 N                    -0.403990
      8 C                    -0.095063
      9 C                    -0.193542
     10 H                     0.410550
     11 H                     0.191981
     12 H                     0.204845
     13 H                     0.186580
     14 H                     0.188256
     15 H                     0.185568
     16 H                     0.194693
  ----------------------------------------
  Sum of atomic charges =     0.000000

 -----------------------------------------------------------------
                    Cartesian Multipole Moments
 -----------------------------------------------------------------
    Charge (ESU x 10^10)
                 0.0000
    Dipole Moment (Debye)
         X      -1.4404      Y       1.6803      Z      -0.0024
       Tot       2.2132
    Quadrupole Moments (Debye-Ang)
        XX     -44.8561     XY      -3.6864     YY     -44.8242
        XZ       0.0219     YZ      -0.0054     ZZ     -59.2719
    Octopole Moments (Debye-Ang^2)
       XXX     -16.2754    XXY       9.3492    XYY      -7.1796
       YYY      11.1194    XXZ      -0.0343    XYZ       0.0222
       YYZ      -0.0002    XZZ      -1.9115    YZZ       2.3274
       ZZZ      -0.0137
    Hexadecapole Moments (Debye-Ang^3)
      XXXX    -841.1744   XXXY     -23.6532   XXYY    -206.0035
      XYYY     -19.2408   YYYY    -379.0853   XXXZ       0.3222
      XXYZ      -0.0400   XYYZ       0.0949   YYYZ      -0.0415
      XXZZ    -198.0760   XYZZ      -3.7535   YYZZ     -96.3617
      XZZZ       0.1692   YZZZ      -0.0310   ZZZZ     -75.0583
 -----------------------------------------------------------------
 Calculating analytic gradient of the CIS energy
 CIS relaxed dipole moment
            1
    1   2.3159825
    2  -2.7065507
    3  -0.0003467
	Magnitude:	 3.562 au	 9.054 Debye
 CIS 2 State Energy is -363.2055925445
 Gradient of the state energy (including CIS Excitation Energy)
            1           2           3           4           5           6
    1   0.0078262   0.0113980   0.0093254  -0.0000307   0.0117935   0.0025085
    2   0.0045912  -0.0000836   0.0200923  -0.0265852   0.0203053  -0.0150548
    3   0.0000161   0.0000200  -0.0002448   0.0002006  -0.0001582  -0.0002037
            7           8           9          10          11          12
    1   0.0015879  -0.0194815  -0.0428141   0.0122389  -0.0000428   0.0038275
    2   0.0428671   0.0144690  -0.0248448  -0.0342575   0.0020389  -0.0039215
    3   0.0001536   0.0002679  -0.0002003  -0.0000034  -0.0000168  -0.0000382
           13          14          15          16
    1   0.0008272   0.0013575   0.0002754  -0.0005971
    2  -0.0009840   0.0013731   0.0010036  -0.0010090
    3   0.0000241   0.0000857   0.0000297   0.0000678
 Gradient time:  CPU 29.43 s  wall 7.41 s
 Geometry Optimization Parameters
   NAtoms,    NIC,     NZ,  NCons,   NDum,   NFix, NCnnct, MaxDiis
       16     116       0       0       0       0       0       0

 Cartesian Hessian Update
 Hessian updated using BFGS update


** GEOMETRY OPTIMIZATION IN DELOCALIZED INTERNAL COORDINATES **
   Searching for a Minimum

   Optimization Cycle:   2

                       Coordinates (Angstroms)
     ATOM                X               Y               Z
      1  C         2.2030844764   -0.6911682757   -0.0008876953
      2  C         2.1735553451    0.7149627035   -0.0004272654
      3  C         0.9363254217    1.4416429733   -0.0002312701
      4  C        -0.2458892010    0.6529702544    0.0008533932
      5  C        -0.2361984580   -0.7540783431    0.0000818569
      6  C         1.0057966915   -1.4643849245   -0.0012140858
      7  N        -1.5998477824    1.0592603160    0.0011261015
      8  C        -1.6403114564   -1.1577944210    0.0015653020
      9  C        -2.4572227383   -0.0048494202    0.0000264448
     10  H        -1.9099143670    2.0305397883   -0.0014061409
     11  H        -2.0159062673   -2.1811893534    0.0014069055
     12  H        -3.5387893491    0.1225467969   -0.0017873444
     13  H         3.1189834352    1.2662560613    0.0004087547
     14  H         0.9053004142    2.5360432140    0.0016655746
     15  H         3.1726057427   -1.1991871939   -0.0003643415
     16  H         1.0315230439   -2.5590176833   -0.0002902086
   Point Group: c1    Number of degrees of freedom:    42


   Energy is   -363.205592545

 Hessian updated using BFGS update

 39 Hessian modes will be used to form the next step
  Hessian Eigenvalues:
     0.018595    0.019738    0.020011    0.020794    0.021685    0.022636
     0.023004    0.023236    0.023609    0.023851    0.023984    0.024128
     0.158884    0.160000    0.160000    0.160000    0.160105    0.219278
     0.222292    0.239667    0.245818    0.250205    0.317263    0.357146
     0.357467    0.357871    0.360698    0.364272    0.370401    0.380198
     0.395163    0.426659    0.435448    0.461290    0.470170    0.474662
     0.475785    0.495726    0.844903

 Minimum search - taking simple RFO step
 Searching for Lamda that Minimizes Along All modes
 Value Taken    Lamda =  -0.00857211
 Step Taken.  Stepsize is  0.131783

                             Maximum     Tolerance    Cnvgd?
         Gradient           0.034369      0.000300      NO
         Displacement       0.071319      0.001200      NO
         Energy change     -0.003479      0.000001      NO


 New Cartesian Coordinates Obtained by Inverse Iteration

 Displacement from previous Coordinates is:  0.187681
 ----------------------------------------------------------------
             Standard Nuclear Orientation (Angstroms)
    I     Atom           X                Y                Z
 ----------------------------------------------------------------
    1      C       2.2007111637    -0.6965409705    -0.0006892920
    2      C       2.1584398835     0.7062862515    -0.0004554687
    3      C       0.9164713260     1.4345327827    -0.0000648572
    4      C      -0.2517546916     0.6520209626     0.0007605535
    5      C      -0.2327791313    -0.7650796350     0.0002470409
    6      C       1.0054618141    -1.4736327127    -0.0006201051
    7      N      -1.5997299426     1.0675558458     0.0012006718
    8      C      -1.6174614271    -1.1749534536     0.0008754195
    9      C      -2.4219354373     0.0113433154     0.0003251931
   10      H      -1.9325339397     2.0686887295    -0.0015931795
   11      H      -1.9992048381    -2.2023632850     0.0005291915
   12      H      -3.5089615447     0.1603557120    -0.0011620556
   13      H       3.1009401502     1.2690436363    -0.0000037974
   14      H       0.8757393138     2.5306163262     0.0015507626
   15      H       3.1744352200    -1.2047517647    -0.0004644267
   16      H       1.0352570325    -2.5705692480     0.0000903304
 ----------------------------------------------------------------
 Molecular Point Group                 C1    NOp =  1
 Largest Abelian Subgroup              C1    NOp =  1
 Nuclear Repulsion Energy =         395.58391533 hartrees
 There are       31 alpha and       31 beta electrons
 Applying Cartesian multipole field
    Component          Value
    ---------          -----
     (2,0,0)        1.00000E-11
     (0,2,0)        2.00000E-11
     (0,0,2)       -3.00000E-11
 Nucleus-field energy     =     0.0000000120 hartrees
 Requested basis set is 6-31+G(d)
 There are 59 shells and 185 basis functions
 A cutoff of  1.0D-12 yielded   1655 shell pairs
 There are     17093 function pairs
 Smallest overlap matrix eigenvalue = 1.38E-06
 Guess MOs from SCF MO coefficient file

 -----------------------------------------------------------------------
  General SCF calculation program by
  Eric Jon Sundstrom, Paul Horn, Yuezhi Mao, Dmitri Zuev, Alec White,
  David Stuck, Shaama M.S., Shane Yost, Joonho Lee, David Small,
  Daniel Levine, Susi Lehtola, Hugh Burton, Evgeny Epifanovsky,
  Bang C. Huynh
 -----------------------------------------------------------------------
 Exchange:  PBE      Correlation:  PBE
 Using SG-1 standard quadrature grid
 using 4 threads for integral computing
 -------------------------------------------------------
 OpenMP Integral computing Module                
 Release: version 1.0, May 2013, Q-Chem Inc. Pittsburgh 
 -------------------------------------------------------
 A restricted SCF calculation will be
 performed using DIIS
 SCF converges when DIIS error is below 1.0e-08
 ---------------------------------------
  Cycle       Energy         DIIS error
 ---------------------------------------
    1    -363.3625306011      5.23e-04  
    2    -363.3640184219      1.89e-04  
    3    -363.3636722844      3.34e-04  
    4    -363.3641607895      7.06e-05  
    5    -363.3641769853      3.96e-05  
    6    -363.3641842250      7.74e-06  
    7    -363.3641845086      2.61e-06  
    8    -363.3641845387      6.97e-07  
    9    -363.3641845409      2.54e-07  
   10    -363.3641845411      1.13e-07  
   11    -363.3641845412      1.61e-08  
   12    -363.3641845412      9.17e-09  Convergence criterion met
 ---------------------------------------
 SCF time:   CPU 30.87s  wall 8.00s 
 SCF   energy in the final basis set =     -363.3641845412
 Total energy in the final basis set =     -363.3641845412
 
 Direct TDDFT/TDA calculation will be performed
 Exchange:  PBE      Correlation:  PBE
 Using SG-1 standard quadrature grid
 Singlet excitation energies requested
 CIS energy converged when residual is below 10e- 6
 ---------------------------------------------------
 Iter    Rts Conv    Rts Left    Ttl Dev     Max Dev
 ---------------------------------------------------
   1         0           3      0.003951    0.001955
   2         0           3      0.003160    0.001583
   3         0           3      0.001953    0.001329
   4         0           3      0.001274    0.001052
   5         0           3      0.000328    0.000266
   6         1           2      0.000088    0.000076
   7         1           2      0.000014    0.000012
   8         2           1      0.000002    0.000002
   9         3           0      0.000001    0.000000    Roots Converged
 ---------------------------------------------------
 
 ---------------------------------------------------
         TDDFT/TDA Excitation Energies              
 ---------------------------------------------------

 Excited state   1: excitation energy (eV) =    4.0701
 Total energy for state  1:                  -363.21461103 au
    Multiplicity: Singlet
    Trans. Mom.: -0.6206 X   0.5682 Y  -0.0011 Z
    Strength   :     0.0705889410
    D(   29) --> V(    1) amplitude = -0.2721
    D(   31) --> V(    1) amplitude =  0.8932

 Excited state   2: excitation energy (eV) =    4.1419
 Total energy for state  2:                  -363.21197292 au
    Multiplicity: Singlet
    Trans. Mom.:  0.0096 X  -0.0079 Y  -0.0969 Z
    Strength   :     0.0009683109
    D(   31) --> V(    2) amplitude =  0.9995

 Excited state   3: excitation energy (eV) =    4.5648
 Total energy for state  3:                  -363.19643103 au
    Multiplicity: Singlet
    Trans. Mom.: -0.0624 X   0.1658 Y  -0.0001 Z
    Strength   :     0.0035088068
    D(   30) --> V(    1) amplitude =  0.7012
    D(   31) --> V(    3) amplitude = -0.6806
 
 ---------------------------------------------------
 Calculating Relaxed Density
 ---------------------------------------------------
 Iter    Rts Conv    Rts Left    Ttl Dev     Max Dev
 ---------------------------------------------------
   1         0           3      0.002684    0.001341
   2         0           3      0.000928    0.000514
   3         0           3      0.000235    0.000112
   4         0           3      0.000080    0.000042
   5         0           3      0.000010    0.000005
   6         3           0      0.000000    0.000000    Roots Converged
 ---------------------------------------------------
  SETman timing summary (seconds)
  CPU time               142.85s
  System time              0.00s
  Wall time               35.98s
 
 --------------------------------------------------------------
 
                    Orbital Energies (a.u.)
 --------------------------------------------------------------
 
 Alpha MOs
 -- Occupied --
-14.0655  -9.9414  -9.9384  -9.9142  -9.9077  -9.9067  -9.9058  -9.9027
 -9.8975  -0.9042  -0.7601  -0.7011  -0.6700  -0.6395  -0.5672  -0.5349
 -0.5207  -0.4858  -0.4316  -0.4214  -0.3896  -0.3843  -0.3774  -0.3569
 -0.3466  -0.3102  -0.2984  -0.2971  -0.2423  -0.2077  -0.1743
 -- Virtual --
 -0.0516  -0.0225  -0.0115   0.0026   0.0109   0.0137   0.0242   0.0267
  0.0451   0.0479   0.0501   0.0545   0.0711   0.0750   0.0933   0.0948
  0.0960   0.1106   0.1185   0.1190   0.1349   0.1356   0.1453   0.1467
  0.1531   0.1557   0.1644   0.1656   0.1760   0.1786   0.1838   0.1841
  0.1967   0.1984   0.2106   0.2173   0.2177   0.2211   0.2312   0.2387
  0.2516   0.2530   0.2589   0.2624   0.2686   0.2752   0.2926   0.3046
  0.3192   0.3212   0.3298   0.3544   0.3716   0.4045   0.4590   0.5194
  0.5490   0.6306   0.6336   0.6539   0.6723   0.6785   0.6793   0.6819
  0.6906   0.7054   0.7089   0.7288   0.7377   0.7435   0.7615   0.8037
  0.8314   0.8407   0.8454   0.8828   0.8916   0.9012   0.9043   0.9300
  0.9431   0.9717   0.9848   0.9948   1.0455   1.0611   1.0689   1.1220
  1.1247   1.1541   1.1758   1.1780   1.1912   1.2552   1.2630   1.2853
  1.3058   1.3448   1.3454   1.3793   1.4008   1.4056   1.4225   1.4313
  1.4831   1.5189   1.5690   1.7007   1.7463   1.7832   1.8200   1.8224
  1.8443   1.8938   1.8971   1.9239   1.9507   1.9799   2.0383   2.0730
  2.0825   2.0829   2.1438   2.1588   2.1843   2.1962   2.2195   2.2787
  2.3091   2.3628   2.4283   2.4511   2.5397   2.5465   2.5629   2.5826
  2.6347   2.6974   2.7336   2.7468   2.8456   2.8852   2.9546   3.1224
  3.2866   4.0436   4.1426   4.1890   4.2202   4.2542   4.2985   4.3776
  4.4215   4.6711
 --------------------------------------------------------------
 
          Ground-State Mulliken Net Atomic Charges

     Atom                 Charge (a.u.)
  ----------------------------------------
      1 C                     0.020926
      2 C                    -0.447753
      3 C                    -0.319863
      4 C                    -1.287796
      5 C                     1.789134
      6 C                    -0.628172
      7 N                    -0.362356
      8 C                    -0.115164
      9 C                    -0.204972
     10 H                     0.410151
     11 H                     0.193492
     12 H                     0.200107
     13 H                     0.184938
     14 H                     0.187242
     15 H                     0.185704
     16 H                     0.194381
  ----------------------------------------
  Sum of atomic charges =     0.000000

 -----------------------------------------------------------------
                    Cartesian Multipole Moments
 -----------------------------------------------------------------
    Charge (ESU x 10^10)
                -0.0000
    Dipole Moment (Debye)
         X      -1.5418      Y       1.8227      Z      -0.0030
       Tot       2.3873
    Quadrupole Moments (Debye-Ang)
        XX     -45.3038     XY      -4.2052     YY     -44.4990
        XZ       0.0180     YZ      -0.0058     ZZ     -59.2974
    Octopole Moments (Debye-Ang^2)
       XXX     -15.6311    XXY      10.2646    XYY      -8.3239
       YYY      12.1591    XXZ      -0.0377    XYZ       0.0207
       YYZ      -0.0110    XZZ      -2.0472    YZZ       2.6162
       ZZZ      -0.0238
    Hexadecapole Moments (Debye-Ang^3)
      XXXX    -840.1709   XXXY     -24.7437   XXYY    -202.9472
      XYYY     -18.5003   YYYY    -380.2589   XXXZ       0.2454
      XXYZ      -0.0389   XYYZ       0.0923   YYYZ      -0.0415
      XXZZ    -196.1835   XYZZ      -2.9140   YYZZ     -97.1741
      XZZZ       0.1395   YZZZ      -0.0286   ZZZZ     -75.1673
 -----------------------------------------------------------------
 Calculating analytic gradient of the CIS energy
 CIS relaxed dipole moment
            1
    1   2.3256530
    2  -2.7221236
    3  -0.0080525
	Magnitude:	 3.580 au	 9.100 Debye
 CIS 2 State Energy is -363.2119729227
 Gradient of the state energy (including CIS Excitation Energy)
            1           2           3           4           5           6
    1   0.0081667   0.0088840   0.0019666  -0.0016325   0.0125419  -0.0044882
    2   0.0099908  -0.0069670   0.0162662  -0.0221587   0.0151656  -0.0135790
    3   0.0000045  -0.0000228  -0.0002170   0.0001924  -0.0001589  -0.0001582
            7           8           9          10          11          12
    1  -0.0064584  -0.0103509  -0.0210113   0.0083284  -0.0005696   0.0002935
    2   0.0281015   0.0060318  -0.0083169  -0.0214279  -0.0025654  -0.0006384
    3   0.0002476   0.0001317  -0.0000782  -0.0001254  -0.0000042  -0.0000530
           13          14          15          16
    1   0.0022703  -0.0001577   0.0024205  -0.0002032
    2   0.0005753   0.0029915  -0.0008503  -0.0026192
    3   0.0000215   0.0001086   0.0000332   0.0000784
 Gradient time:  CPU 29.56 s  wall 7.44 s
 Geometry Optimization Parameters
   NAtoms,    NIC,     NZ,  NCons,   NDum,   NFix, NCnnct, MaxDiis
       16     116       0       0       0       0       0       0

 Cartesian Hessian Update
 Hessian updated using BFGS update


** GEOMETRY OPTIMIZATION IN DELOCALIZED INTERNAL COORDINATES **
   Searching for a Minimum

   Optimization Cycle:   3

                       Coordinates (Angstroms)
     ATOM                X               Y               Z
      1  C         2.2007111637   -0.6965409705   -0.0006892920
      2  C         2.1584398835    0.7062862515   -0.0004554687
      3  C         0.9164713260    1.4345327827   -0.0000648572
      4  C        -0.2517546916    0.6520209626    0.0007605535
      5  C        -0.2327791313   -0.7650796350    0.0002470409
      6  C         1.0054618141   -1.4736327127   -0.0006201051
      7  N        -1.5997299426    1.0675558458    0.0012006718
      8  C        -1.6174614271   -1.1749534536    0.0008754195
      9  C        -2.4219354373    0.0113433154    0.0003251931
     10  H        -1.9325339397    2.0686887295   -0.0015931795
     11  H        -1.9992048381   -2.2023632850    0.0005291915
     12  H        -3.5089615447    0.1603557120   -0.0011620556
     13  H         3.1009401502    1.2690436363   -0.0000037974
     14  H         0.8757393138    2.5306163262    0.0015507626
     15  H         3.1744352200   -1.2047517647   -0.0004644267
     16  H         1.0352570325   -2.5705692480    0.0000903304
   Point Group: c1    Number of degrees of freedom:    42


   Energy is   -363.211972923

 Hessian updated using BFGS update

 40 Hessian modes will be used to form the next step
  Hessian Eigenvalues:
     0.018596    0.019738    0.020011    0.020794    0.021685    0.022200
     0.022636    0.023004    0.023236    0.023609    0.023851    0.023984
     0.024128    0.156711    0.160000    0.160000    0.160021    0.162164
     0.217082    0.221657    0.228509    0.245219    0.256117    0.279273
     0.357163    0.357410    0.357911    0.359370    0.365117    0.368754
     0.370741    0.390954    0.426877    0.435466    0.461854    0.473951
     0.475569    0.487524    0.493521    0.519549

 Minimum search - taking simple RFO step
 Searching for Lamda that Minimizes Along All modes
 Value Taken    Lamda =  -0.00691807
 Step Taken.  Stepsize is  0.157230

                             Maximum     Tolerance    Cnvgd?
         Gradient           0.022228      0.000300      NO
         Displacement       0.080754      0.001200      NO
         Energy change     -0.006380      0.000001      NO


 New Cartesian Coordinates Obtained by Inverse Iteration

 Displacement from previous Coordinates is:  0.200717
 ----------------------------------------------------------------
             Standard Nuclear Orientation (Angstroms)
    I     Atom           X                Y                Z
 ----------------------------------------------------------------
    1      C       2.1853855544    -0.7031100707     0.0001355614
    2      C       2.1387524591     0.6983854403     0.0002245539
    3      C       0.9039735078     1.4199190154    -0.0001786364
    4      C      -0.2520758244     0.6614779197    -0.0003395990
    5      C      -0.2367868754    -0.7709808052     0.0002861065
    6      C       1.0000783416    -1.4658512907     0.0002428770
    7      N      -1.5911921165     1.0706100143     0.0003157995
    8      C      -1.5882305366    -1.1912922733    -0.0001416501
    9      C      -2.3775529008     0.0186583437    -0.0001413156
   10      H      -1.9653009085     2.1082268953     0.0007505957
   11      H      -1.9774986183    -2.2121594424    -0.0000338423
   12      H      -3.4679504318     0.1716045433     0.0000061432
   13      H       3.0744790315     1.2677727992     0.0000943903
   14      H       0.8690658456     2.5118882476    -0.0003232482
   15      H       3.1543862516    -1.2132086804    -0.0002671635
   16      H       1.0335621720    -2.5593881635    -0.0001045912
 ----------------------------------------------------------------
 Molecular Point Group                 C1    NOp =  1
 Largest Abelian Subgroup              C1    NOp =  1
 Nuclear Repulsion Energy =         397.89570223 hartrees
 There are       31 alpha and       31 beta electrons
 Applying Cartesian multipole field
    Component          Value
    ---------          -----
     (2,0,0)        1.00000E-11
     (0,2,0)        2.00000E-11
     (0,0,2)       -3.00000E-11
 Nucleus-field energy     =     0.0000000119 hartrees
 Requested basis set is 6-31+G(d)
 There are 59 shells and 185 basis functions
 A cutoff of  1.0D-12 yielded   1655 shell pairs
 There are     17095 function pairs
 Smallest overlap matrix eigenvalue = 1.27E-06
 Guess MOs from SCF MO coefficient file

 -----------------------------------------------------------------------
  General SCF calculation program by
  Eric Jon Sundstrom, Paul Horn, Yuezhi Mao, Dmitri Zuev, Alec White,
  David Stuck, Shaama M.S., Shane Yost, Joonho Lee, David Small,
  Daniel Levine, Susi Lehtola, Hugh Burton, Evgeny Epifanovsky,
  Bang C. Huynh
 -----------------------------------------------------------------------
 Exchange:  PBE      Correlation:  PBE
 Using SG-1 standard quadrature grid
 using 4 threads for integral computing
 -------------------------------------------------------
 OpenMP Integral computing Module                
 Release: version 1.0, May 2013, Q-Chem Inc. Pittsburgh 
 -------------------------------------------------------
 A restricted SCF calculation will be
 performed using DIIS
 SCF converges when DIIS error is below 1.0e-08
 ---------------------------------------
  Cycle       Energy         DIIS error
 ---------------------------------------
    1    -363.3556473692      6.75e-04  
    2    -363.3579246142      2.61e-04  
    3    -363.3571965179      4.79e-04  
    4    -363.3581966114      8.63e-05  
    5    -363.3582186719      4.98e-05  
    6    -363.3582305731      1.16e-05  
    7    -363.3582312428      2.82e-06  
    8    -363.3582312758      1.12e-06  
    9    -363.3582312814      3.73e-07  
   10    -363.3582312819      1.32e-07  
   11    -363.3582312820      3.13e-08  
   12    -363.3582312821      1.10e-08  
   13    -363.3582312821      2.31e-09  Convergence criterion met
 ---------------------------------------
 SCF time:   CPU 33.72s  wall 8.00s 
 SCF   energy in the final basis set =     -363.3582312821
 Total energy in the final basis set =     -363.3582312821
 
 Direct TDDFT/TDA calculation will be performed
 Exchange:  PBE      Correlation:  PBE
 Using SG-1 standard quadrature grid
 Singlet excitation energies requested
 CIS energy converged when residual is below 10e- 6
 ---------------------------------------------------
 Iter    Rts Conv    Rts Left    Ttl Dev     Max Dev
 ---------------------------------------------------
   1         0           3      0.004007    0.001987
   2         0           3      0.003220    0.001622
   3         0           3      0.002621    0.001414
   4         0           3      0.001868    0.001363
   5         1           2      0.000582    0.000404
   6         1           2      0.000135    0.000088
   7         1           2      0.000034    0.000022
   8         1           2      0.000007    0.000004
   9         3           0      0.000001    0.000001    Roots Converged
 ---------------------------------------------------
 
 ---------------------------------------------------
         TDDFT/TDA Excitation Energies              
 ---------------------------------------------------

 Excited state   1: excitation energy (eV) =    3.8648
 Total energy for state  1:                  -363.21620327 au
    Multiplicity: Singlet
    Trans. Mom.: -0.0004 X   0.0007 Y   0.0827 Z
    Strength   :     0.0006473862
    D(   31) --> V(    2) amplitude =  0.9995

 Excited state   2: excitation energy (eV) =    4.1876
 Total energy for state  2:                  -363.20433926 au
    Multiplicity: Singlet
    Trans. Mom.:  0.7376 X  -0.5700 Y   0.0003 Z
    Strength   :     0.0891439578
    D(   29) --> V(    1) amplitude = -0.2413
    D(   31) --> V(    1) amplitude =  0.8824
    D(   31) --> V(    3) amplitude = -0.2478

 Excited state   3: excitation energy (eV) =    4.6185
 Total energy for state  3:                  -363.18850634 au
    Multiplicity: Singlet
    Trans. Mom.:  0.2271 X  -0.1505 Y   0.0002 Z
    Strength   :     0.0083988087
    D(   30) --> V(    1) amplitude =  0.6866
    D(   31) --> V(    3) amplitude =  0.6870
 
 ---------------------------------------------------
 Calculating Relaxed Density
 ---------------------------------------------------
 Iter    Rts Conv    Rts Left    Ttl Dev     Max Dev
 ---------------------------------------------------
   1         0           3      0.002677    0.001316
   2         0           3      0.000948    0.000513
   3         0           3      0.000236    0.000112
   4         0           3      0.000082    0.000044
   5         0           3      0.000011    0.000005
   6         3           0      0.000000    0.000000    Roots Converged
 ---------------------------------------------------
  SETman timing summary (seconds)
  CPU time               119.44s
  System time              0.00s
  Wall time               30.05s
 
 --------------------------------------------------------------
 
                    Orbital Energies (a.u.)
 --------------------------------------------------------------
 
 Alpha MOs
 -- Occupied --
-14.0715  -9.9400  -9.9352  -9.9089  -9.9036  -9.9018  -9.9013  -9.8986
 -9.8950  -0.9120  -0.7624  -0.7034  -0.6721  -0.6374  -0.5675  -0.5351
 -0.5216  -0.4856  -0.4309  -0.4197  -0.3927  -0.3844  -0.3826  -0.3573
 -0.3426  -0.3090  -0.2988  -0.2968  -0.2450  -0.2075  -0.1717
 -- Virtual --
 -0.0472  -0.0303  -0.0093   0.0029   0.0111   0.0165   0.0247   0.0266
  0.0442   0.0477   0.0490   0.0553   0.0712   0.0754   0.0924   0.0956
  0.0965   0.1115   0.1139   0.1193   0.1348   0.1384   0.1461   0.1481
  0.1535   0.1574   0.1659   0.1671   0.1769   0.1802   0.1833   0.1850
  0.1968   0.2025   0.2117   0.2171   0.2187   0.2250   0.2322   0.2397
  0.2520   0.2539   0.2603   0.2671   0.2713   0.2764   0.2948   0.3090
  0.3243   0.3255   0.3395   0.3529   0.3790   0.4069   0.4673   0.5240
  0.5586   0.6313   0.6356   0.6531   0.6731   0.6788   0.6831   0.6890
  0.6913   0.7106   0.7135   0.7306   0.7445   0.7454   0.7695   0.8064
  0.8293   0.8428   0.8506   0.8847   0.8914   0.9040   0.9049   0.9297
  0.9479   0.9525   0.9828   0.9978   1.0456   1.0616   1.0698   1.1273
  1.1297   1.1538   1.1776   1.1779   1.1915   1.2530   1.2743   1.2866
  1.3127   1.3529   1.3566   1.3867   1.3947   1.4070   1.4292   1.4348
  1.4883   1.5209   1.5894   1.6827   1.7512   1.8017   1.8244   1.8301
  1.8537   1.8878   1.9068   1.9345   1.9708   1.9952   2.0517   2.0621
  2.0794   2.0955   2.1523   2.1668   2.1926   2.2239   2.2417   2.2943
  2.3347   2.3739   2.4400   2.4684   2.5522   2.5640   2.5648   2.5952
  2.6381   2.7121   2.7517   2.7544   2.8518   2.9004   2.9753   3.1346
  3.3157   4.0493   4.1544   4.1948   4.2178   4.2619   4.3018   4.3839
  4.4257   4.6808
 --------------------------------------------------------------
 
          Ground-State Mulliken Net Atomic Charges

     Atom                 Charge (a.u.)
  ----------------------------------------
      1 C                     0.033756
      2 C                    -0.474820
      3 C                    -0.226956
      4 C                    -1.233060
      5 C                     1.665594
      6 C                    -0.693196
      7 N                    -0.321570
      8 C                    -0.044109
      9 C                    -0.243490
     10 H                     0.404198
     11 H                     0.194557
     12 H                     0.194903
     13 H                     0.182661
     14 H                     0.185202
     15 H                     0.184643
     16 H                     0.191688
  ----------------------------------------
  Sum of atomic charges =     0.000000

 -----------------------------------------------------------------
                    Cartesian Multipole Moments
 -----------------------------------------------------------------
    Charge (ESU x 10^10)
                 0.0000
    Dipole Moment (Debye)
         X      -1.6979      Y       1.9370      Z       0.0002
       Tot       2.5758
    Quadrupole Moments (Debye-Ang)
        XX     -45.6272     XY      -4.5436     YY     -44.2373
        XZ      -0.0040     YZ       0.0027     ZZ     -59.1233
    Octopole Moments (Debye-Ang^2)
       XXX     -15.5121    XXY      10.8633    XYY      -9.6572
       YYY      13.0777    XXZ      -0.0019    XYZ      -0.0027
       YYZ       0.0005    XZZ      -2.2010    YZZ       2.7389
       ZZZ      -0.0066
    Hexadecapole Moments (Debye-Ang^3)
      XXXX    -832.6192   XXXY     -25.3754   XXYY    -197.6166
      XYYY     -18.4678   YYYY    -379.4163   XXXZ      -0.0383
      XXYZ       0.0187   XYYZ      -0.0223   YYYZ       0.0210
      XXZZ    -192.4704   XYZZ      -2.3378   YYZZ     -96.9385
      XZZZ      -0.0172   YZZZ       0.0070   ZZZZ     -74.7116
 -----------------------------------------------------------------
 Calculating analytic gradient of the CIS energy
 CIS relaxed dipole moment
            1
    1  -2.0222269
    2   0.5599599
    3   0.0006261
	Magnitude:	 2.098 au	 5.333 Debye
 CIS 2 State Energy is -363.2043392646
 Gradient of the state energy (including CIS Excitation Energy)
            1           2           3           4           5           6
    1  -0.0125163  -0.0019122  -0.0270339   0.0012401  -0.0221036   0.0089073
    2  -0.0135396   0.0035472  -0.0318044   0.0460102  -0.0323685   0.0215626
    3  -0.0000004   0.0000442  -0.0000111  -0.0001159   0.0000887   0.0000081
            7           8           9          10          11          12
    1   0.0098783   0.0220022   0.0494253  -0.0212403   0.0011831  -0.0058663
    2  -0.0611410  -0.0067461   0.0223960   0.0497243  -0.0021981   0.0065815
    3   0.0000194  -0.0000226  -0.0000253   0.0000400   0.0000074   0.0000017
           13          14          15          16
    1  -0.0003469  -0.0025162  -0.0002796   0.0011789
    2  -0.0001402  -0.0012688  -0.0008331   0.0002179
    3  -0.0000084  -0.0000010  -0.0000173  -0.0000075
 Gradient time:  CPU 23.97 s  wall 6.03 s
 Geometry Optimization Parameters
   NAtoms,    NIC,     NZ,  NCons,   NDum,   NFix, NCnnct, MaxDiis
       16     116       0       0       0       0       0       0

 Cartesian Hessian Update
 Hessian updated using BFGS update


** GEOMETRY OPTIMIZATION IN DELOCALIZED INTERNAL COORDINATES **
   Searching for a Minimum

   Optimization Cycle:   4

                       Coordinates (Angstroms)
     ATOM                X               Y               Z
      1  C         2.1853855544   -0.7031100707    0.0001355614
      2  C         2.1387524591    0.6983854403    0.0002245539
      3  C         0.9039735078    1.4199190154   -0.0001786364
      4  C        -0.2520758244    0.6614779197   -0.0003395990
      5  C        -0.2367868754   -0.7709808052    0.0002861065
      6  C         1.0000783416   -1.4658512907    0.0002428770
      7  N        -1.5911921165    1.0706100143    0.0003157995
      8  C        -1.5882305366   -1.1912922733   -0.0001416501
      9  C        -2.3775529008    0.0186583437   -0.0001413156
     10  H        -1.9653009085    2.1082268953    0.0007505957
     11  H        -1.9774986183   -2.2121594424   -0.0000338423
     12  H        -3.4679504318    0.1716045433    0.0000061432
     13  H         3.0744790315    1.2677727992    0.0000943903
     14  H         0.8690658456    2.5118882476   -0.0003232482
     15  H         3.1543862516   -1.2132086804   -0.0002671635
     16  H         1.0335621720   -2.5593881635   -0.0001045912
   Point Group: c1    Number of degrees of freedom:    42


   Energy is   -363.204339265

 Hessian updated using BFGS update

 41 Hessian modes will be used to form the next step
  Hessian Eigenvalues:
     0.018596    0.019738    0.020011    0.020794    0.021684    0.022200
     0.022636    0.023005    0.023236    0.023609    0.023851    0.023984
     0.024128    0.159215    0.160000    0.160000    0.160002    0.160533
     0.161533    0.219725    0.228167    0.237754    0.246264    0.260875
     0.356676    0.357165    0.357702    0.358024    0.363571    0.365557
     0.370385    0.388755    0.419463    0.426808    0.435891    0.462555
     0.467492    0.474385    0.487085    0.495858    0.998414

 Minimum search - taking simple RFO step
 Searching for Lamda that Minimizes Along All modes
 Value Taken    Lamda =  -0.00989121
 Step Taken.  Stepsize is  0.106803

                             Maximum     Tolerance    Cnvgd?
         Gradient           0.042960      0.000300      NO
         Displacement       0.055564      0.001200      NO
         Energy change      0.007634      0.000001      NO


 New Cartesian Coordinates Obtained by Inverse Iteration

 Displacement from previous Coordinates is:  0.140959
 ----------------------------------------------------------------
             Standard Nuclear Orientation (Angstroms)
    I     Atom           X                Y                Z
 ----------------------------------------------------------------
    1      C       2.1876142678    -0.6969769723     0.0001719504
    2      C       2.1477125123     0.7049631808     0.0001521379
    3      C       0.9191802306     1.4317943140    -0.0000427594
    4      C      -0.2478143939     0.6583591982    -0.0002808116
    5      C      -0.2361272566    -0.7632185292     0.0002056042
    6      C       0.9977066770    -1.4649072365     0.0003402898
    7      N      -1.5931624477     1.0663384393     0.0001203948
    8      C      -1.6056027345    -1.1823242734    -0.0003772868
    9      C      -2.4035790192     0.0086890353     0.0001091072
   10      H      -1.9397503317     2.0771701795     0.0004856407
   11      H      -1.9915270483    -2.2034086597    -0.0003563800
   12      H      -3.4903286757     0.1482715533     0.0004349158
   13      H       3.0864718660     1.2683147722    -0.0000340176
   14      H       0.8894596922     2.5243144206    -0.0002504382
   15      H       3.1563572881    -1.2066487796    -0.0001671656
   16      H       1.0264843248    -2.5581781498     0.0000147996
 ----------------------------------------------------------------
 Molecular Point Group                 C1    NOp =  1
 Largest Abelian Subgroup              C1    NOp =  1
 Nuclear Repulsion Energy =         396.96160297 hartrees
 There are       31 alpha and       31 beta electrons
 Applying Cartesian multipole field
    Component          Value
    ---------          -----
     (2,0,0)        1.00000E-11
     (0,2,0)        2.00000E-11
     (0,0,2)       -3.00000E-11
 Nucleus-field energy     =     0.0000000120 hartrees
 Requested basis set is 6-31+G(d)
 There are 59 shells and 185 basis functions
 A cutoff of  1.0D-12 yielded   1656 shell pairs
 There are     17099 function pairs
 Smallest overlap matrix eigenvalue = 1.36E-06
 Guess MOs from SCF MO coefficient file

 -----------------------------------------------------------------------
  General SCF calculation program by
  Eric Jon Sundstrom, Paul Horn, Yuezhi Mao, Dmitri Zuev, Alec White,
  David Stuck, Shaama M.S., Shane Yost, Joonho Lee, David Small,
  Daniel Levine, Susi Lehtola, Hugh Burton, Evgeny Epifanovsky,
  Bang C. Huynh
 -----------------------------------------------------------------------
 Exchange:  PBE      Correlation:  PBE
 Using SG-1 standard quadrature grid
 using 4 threads for integral computing
 -------------------------------------------------------
 OpenMP Integral computing Module                
 Release: version 1.0, May 2013, Q-Chem Inc. Pittsburgh 
 -------------------------------------------------------
 A restricted SCF calculation will be
 performed using DIIS
 SCF converges when DIIS error is below 1.0e-08
 ---------------------------------------
  Cycle       Energy         DIIS error
 ---------------------------------------
    1    -363.3634155205      4.69e-04  
    2    -363.3645169764      2.00e-04  
    3    -363.3641753789      3.44e-04  
    4    -363.3646709641      6.41e-05  
    5    -363.3646830616      3.85e-05  
    6    -363.3646901225      7.56e-06  
    7    -363.3646903984      2.01e-06  
    8    -363.3646904161      6.91e-07  
    9    -363.3646904183      2.16e-07  
   10    -363.3646904185      9.33e-08  
   11    -363.3646904186      1.78e-08  
   12    -363.3646904186      8.10e-09  Convergence criterion met
 ---------------------------------------
 SCF time:   CPU 24.57s  wall 7.00s 
 SCF   energy in the final basis set =     -363.3646904186
 Total energy in the final basis set =     -363.3646904186
 
 Direct TDDFT/TDA calculation will be performed
 Exchange:  PBE      Correlation:  PBE
 Using SG-1 standard quadrature grid
 Singlet excitation energies requested
 CIS energy converged when residual is below 10e- 6
 ---------------------------------------------------
 Iter    Rts Conv    Rts Left    Ttl Dev     Max Dev
 ---------------------------------------------------
   1         0           3      0.003961    0.001962
   2         0           3      0.003111    0.001551
   3         0           3      0.002122    0.001365
   4         0           3      0.001356    0.000947
   5         1           2      0.000412    0.000258
   6         1           2      0.000114    0.000076
   7         1           2      0.000020    0.000012
   8         1           2      0.000003    0.000002
   9         3           0      0.000001    0.000000    Roots Converged
 ---------------------------------------------------
 
 ---------------------------------------------------
         TDDFT/TDA Excitation Energies              
 ---------------------------------------------------

 Excited state   1: excitation energy (eV) =    4.0977
 Total energy for state  1:                  -363.21410144 au
    Multiplicity: Singlet
    Trans. Mom.: -0.0030 X   0.0031 Y   0.0945 Z
    Strength   :     0.0008976751
    D(   31) --> V(    2) amplitude =  0.9996

 Excited state   2: excitation energy (eV) =    4.1457
 Total energy for state  2:                  -363.21233987 au
    Multiplicity: Singlet
    Trans. Mom.:  0.6412 X  -0.5636 Y   0.0006 Z
    Strength   :     0.0740164523
    D(   29) --> V(    1) amplitude = -0.2598
    D(   31) --> V(    1) amplitude =  0.8909
    D(   31) --> V(    3) amplitude = -0.2156

 Excited state   3: excitation energy (eV) =    4.6000
 Total energy for state  3:                  -363.19564466 au
    Multiplicity: Singlet
    Trans. Mom.:  0.0838 X  -0.1700 Y   0.0001 Z
    Strength   :     0.0040498223
    D(   30) --> V(    1) amplitude =  0.7025
    D(   31) --> V(    3) amplitude =  0.6770
 
 ---------------------------------------------------
 Calculating Relaxed Density
 ---------------------------------------------------
 Iter    Rts Conv    Rts Left    Ttl Dev     Max Dev
 ---------------------------------------------------
   1         0           3      0.002652    0.001317
   2         0           3      0.000920    0.000506
   3         0           3      0.000236    0.000111
   4         0           3      0.000080    0.000042
   5         0           3      0.000010    0.000005
   6         3           0      0.000000    0.000000    Roots Converged
 ---------------------------------------------------
  SETman timing summary (seconds)
  CPU time               110.54s
  System time              0.00s
  Wall time               27.79s
 
 --------------------------------------------------------------
 
                    Orbital Energies (a.u.)
 --------------------------------------------------------------
 
 Alpha MOs
 -- Occupied --
-14.0670  -9.9400  -9.9370  -9.9114  -9.9046  -9.9042  -9.9030  -9.9001
 -9.8957  -0.9063  -0.7618  -0.7027  -0.6702  -0.6402  -0.5673  -0.5353
 -0.5213  -0.4863  -0.4317  -0.4211  -0.3909  -0.3844  -0.3790  -0.3580
 -0.3453  -0.3095  -0.2982  -0.2980  -0.2439  -0.2068  -0.1742
 -- Virtual --
 -0.0492  -0.0241  -0.0104   0.0028   0.0110   0.0152   0.0247   0.0268
  0.0450   0.0479   0.0502   0.0550   0.0713   0.0751   0.0933   0.0955
  0.0965   0.1111   0.1178   0.1190   0.1358   0.1369   0.1457   0.1481
  0.1540   0.1568   0.1656   0.1664   0.1773   0.1792   0.1836   0.1845
  0.1975   0.2008   0.2115   0.2179   0.2185   0.2229   0.2323   0.2392
  0.2522   0.2540   0.2600   0.2652   0.2699   0.2765   0.2936   0.3071
  0.3211   0.3241   0.3340   0.3546   0.3760   0.4067   0.4630   0.5235
  0.5555   0.6309   0.6346   0.6542   0.6731   0.6790   0.6802   0.6855
  0.6911   0.7080   0.7096   0.7297   0.7410   0.7446   0.7652   0.8051
  0.8321   0.8425   0.8489   0.8835   0.8918   0.9028   0.9045   0.9300
  0.9465   0.9672   0.9843   0.9967   1.0459   1.0625   1.0692   1.1228
  1.1279   1.1545   1.1763   1.1776   1.1924   1.2548   1.2675   1.2852
  1.3093   1.3477   1.3505   1.3825   1.3987   1.4056   1.4253   1.4327
  1.4851   1.5178   1.5780   1.6984   1.7533   1.7948   1.8216   1.8287
  1.8498   1.8950   1.9038   1.9294   1.9628   1.9894   2.0489   2.0761
  2.0847   2.0849   2.1531   2.1613   2.1882   2.2059   2.2279   2.2872
  2.3182   2.3690   2.4351   2.4595   2.5459   2.5574   2.5654   2.5897
  2.6393   2.7047   2.7431   2.7530   2.8518   2.8922   2.9685   3.1290
  3.3053   4.0455   4.1513   4.1935   4.2203   4.2579   4.3002   4.3806
  4.4246   4.6767
 --------------------------------------------------------------
 
          Ground-State Mulliken Net Atomic Charges

     Atom                 Charge (a.u.)
  ----------------------------------------
      1 C                     0.026510
      2 C                    -0.457012
      3 C                    -0.253236
      4 C                    -1.245478
      5 C                     1.701019
      6 C                    -0.686786
      7 N                    -0.356387
      8 C                    -0.047085
      9 C                    -0.230586
     10 H                     0.408469
     11 H                     0.193927
     12 H                     0.198380
     13 H                     0.183739
     14 H                     0.186924
     15 H                     0.184761
     16 H                     0.192842
  ----------------------------------------
  Sum of atomic charges =     0.000000

 -----------------------------------------------------------------
                    Cartesian Multipole Moments
 -----------------------------------------------------------------
    Charge (ESU x 10^10)
                 0.0000
    Dipole Moment (Debye)
         X      -1.5857      Y       1.8398      Z       0.0002
       Tot       2.4289
    Quadrupole Moments (Debye-Ang)
        XX     -45.4398     XY      -4.1629     YY     -44.4017
        XZ      -0.0047     YZ       0.0022     ZZ     -59.1622
    Octopole Moments (Debye-Ang^2)
       XXX     -15.6843    XXY      10.1970    XYY      -8.6604
       YYY      12.3051    XXZ       0.0010    XYZ      -0.0032
       YYZ      -0.0028    XZZ      -2.0439    YZZ       2.5787
       ZZZ      -0.0070
    Hexadecapole Moments (Debye-Ang^3)
      XXXX    -835.0067   XXXY     -24.8484   XXYY    -200.4392
      XYYY     -18.8908   YYYY    -379.1932   XXXZ      -0.0580
      XXYZ       0.0142   XYYZ      -0.0166   YYYZ       0.0153
      XXZZ    -194.0100   XYZZ      -3.0953   YYZZ     -96.7484
      XZZZ      -0.0215   YZZZ       0.0044   ZZZZ     -74.7972
 -----------------------------------------------------------------
 Calculating analytic gradient of the CIS energy
 CIS relaxed dipole moment
            1
    1  -2.1069814
    2   0.5035826
    3   0.0037370
	Magnitude:	 2.166 au	 5.506 Debye
 CIS 2 State Energy is -363.2123398747
 Gradient of the state energy (including CIS Excitation Energy)
            1           2           3           4           5           6
    1  -0.0084575  -0.0028246  -0.0129613  -0.0037169  -0.0136667   0.0046363
    2  -0.0114056   0.0063375  -0.0243500   0.0361739  -0.0271182   0.0186392
    3   0.0000013   0.0000369   0.0000084  -0.0000990   0.0001198   0.0000328
            7           8           9          10          11          12
    1   0.0148889   0.0117061   0.0283475  -0.0132220   0.0007951  -0.0035271
    2  -0.0358125  -0.0021865   0.0053927   0.0323728  -0.0010662   0.0038796
    3  -0.0000568  -0.0000841   0.0000217   0.0000566   0.0000073   0.0000177
           13          14          15          16
    1  -0.0006906  -0.0014292  -0.0004155   0.0005375
    2  -0.0002375  -0.0005229  -0.0002580   0.0001617
    3  -0.0000065  -0.0000160  -0.0000187  -0.0000213
 Gradient time:  CPU 23.05 s  wall 5.79 s
 Geometry Optimization Parameters
   NAtoms,    NIC,     NZ,  NCons,   NDum,   NFix, NCnnct, MaxDiis
       16     116       0       0       0       0       0       0

 Cartesian Hessian Update
 Hessian updated using BFGS update


** GEOMETRY OPTIMIZATION IN DELOCALIZED INTERNAL COORDINATES **
   Searching for a Minimum

   Optimization Cycle:   5

                       Coordinates (Angstroms)
     ATOM                X               Y               Z
      1  C         2.1876142678   -0.6969769723    0.0001719504
      2  C         2.1477125123    0.7049631808    0.0001521379
      3  C         0.9191802306    1.4317943140   -0.0000427594
      4  C        -0.2478143939    0.6583591982   -0.0002808116
      5  C        -0.2361272566   -0.7632185292    0.0002056042
      6  C         0.9977066770   -1.4649072365    0.0003402898
      7  N        -1.5931624477    1.0663384393    0.0001203948
      8  C        -1.6056027345   -1.1823242734   -0.0003772868
      9  C        -2.4035790192    0.0086890353    0.0001091072
     10  H        -1.9397503317    2.0771701795    0.0004856407
     11  H        -1.9915270483   -2.2034086597   -0.0003563800
     12  H        -3.4903286757    0.1482715533    0.0004349158
     13  H         3.0864718660    1.2683147722   -0.0000340176
     14  H         0.8894596922    2.5243144206   -0.0002504382
     15  H         3.1563572881   -1.2066487796   -0.0001671656
     16  H         1.0264843248   -2.5581781498    0.0000147996
   Point Group: c1    Number of degrees of freedom:    42


   Energy is   -363.212339875

 Hessian updated using BFGS update

 42 Hessian modes will be used to form the next step
  Hessian Eigenvalues:
     0.018596    0.019738    0.020011    0.020794    0.021685    0.022200
     0.022636    0.023004    0.023236    0.023609    0.023851    0.023984
     0.024128    0.158619    0.159621    0.160000    0.160000    0.160007
     0.160163    0.161342    0.212648    0.219786    0.231207    0.245923
     0.260552    0.324845    0.357126    0.357415    0.357876    0.358307
     0.365056    0.366037    0.372584    0.394297    0.427987    0.434658
     0.459815    0.467347    0.469486    0.483481    0.496996    0.556367

 Minimum search - taking simple RFO step
 Searching for Lamda that Minimizes Along All modes
 Value Taken    Lamda =  -0.01181674
 Step Taken.  Stepsize is  0.199257

                             Maximum     Tolerance    Cnvgd?
         Gradient           0.029089      0.000300      NO
         Displacement       0.113167      0.001200      NO
         Energy change     -0.008001      0.000001      NO


 New Cartesian Coordinates Obtained by Inverse Iteration

 Displacement from previous Coordinates is:  0.230344
 ----------------------------------------------------------------
             Standard Nuclear Orientation (Angstroms)
    I     Atom           X                Y                Z
 ----------------------------------------------------------------
    1      C       2.1962702122    -0.6892669735    -0.0002181394
    2      C       2.1594361760     0.7107869245    -0.0001442465
    3      C       0.9352181195     1.4570422740     0.0005075446
    4      C      -0.2391306346     0.6429265034     0.0002441162
    5      C      -0.2261413983    -0.7477160434     0.0001918699
    6      C       1.0023350468    -1.4802006343     0.0001631207
    7      N      -1.6066291604     1.0566656430     0.0002796676
    8      C      -1.6294860669    -1.1587064103     0.0002968738
    9      C      -2.4484455069     0.0076481735    -0.0001223357
   10      H      -1.9062090214     2.0181079913    -0.0000094402
   11      H      -2.0116000523    -2.1804260740     0.0002356917
   12      H      -3.5290292259     0.1280153430    -0.0006543600
   13      H       3.1051072133     1.2642885031    -0.0004569963
   14      H       0.9073265908     2.5493596820     0.0005697121
[...]
            1
    1  -1.8711604
    2   0.3234777
    3   0.1687903
	Magnitude:	 1.906 au	 4.846 Debye
 CIS 2 State Energy is -363.2130427411
 Gradient of the state energy (including CIS Excitation Energy)
            1           2           3           4           5           6
    1  -0.0076162  -0.0034029  -0.0105016  -0.0030955  -0.0125011   0.0054761
    2  -0.0115759   0.0067768  -0.0221265   0.0320686  -0.0238719   0.0168496
    3  -0.0000978   0.0005228   0.0009123  -0.0016565   0.0019014   0.0011860
            7           8           9          10          11          12
    1   0.0112465   0.0111244   0.0237257  -0.0107332   0.0005345  -0.0027324
    2  -0.0302398  -0.0017853   0.0060337   0.0265415  -0.0007337   0.0029312
    3  -0.0029208  -0.0006561   0.0001785   0.0022063  -0.0001096   0.0004563
           13          14          15          16
    1  -0.0004582  -0.0012767  -0.0002910   0.0005016
    2  -0.0002650  -0.0004509  -0.0001526   0.0000001
    3  -0.0000910  -0.0007786  -0.0003043  -0.0007489
 Gradient time:  CPU 22.94 s  wall 5.76 s
 Geometry Optimization Parameters
   NAtoms,    NIC,     NZ,  NCons,   NDum,   NFix, NCnnct, MaxDiis
       16     116       0       0       0       0       0       0

 Cartesian Hessian Update
 Hessian updated using BFGS update


** GEOMETRY OPTIMIZATION IN DELOCALIZED INTERNAL COORDINATES **
   Searching for a Minimum

   Optimization Cycle:  49

                       Coordinates (Angstroms)
     ATOM                X               Y               Z
      1  C         2.1890550535   -0.6983061694    0.0019609478
      2  C         2.1473340482    0.7050685669    0.0018676650
      3  C         0.9208065606    1.4324094346    0.0029954565
      4  C        -0.2481979662    0.6584372630   -0.0027112917
      5  C        -0.2353442699   -0.7614797817    0.0001375557
      6  C         0.9995006538   -1.4656627657    0.0033014563
      7  N        -1.5963224675    1.0671630096   -0.0026401681
      8  C        -1.6057245010   -1.1795496941   -0.0016241728
      9  C        -2.4070329951    0.0103486106   -0.0002464306
     10  H        -1.9377674100    2.0738376830    0.0074661494
     11  H        -1.9940582455   -2.1995624185   -0.0026784801
     12  H        -3.4936406781    0.1426030203    0.0023317411
     13  H         3.0871941413    1.2671299186    0.0000688790
     14  H         0.8918781169    2.5249664744   -0.0083298979
     15  H         3.1589824472   -1.2057029997    0.0007875208
     16  H         1.0264324632   -2.5591476592   -0.0021609493
   Point Group: c1    Number of degrees of freedom:    42


   Energy is   -363.213042741

 Hessian updated using BFGS update

 42 Hessian modes will be used to form the next step
  Hessian Eigenvalues:
     0.020036    0.020414    0.021050    0.021740    0.022647    0.023113
     0.023197    0.023535    0.023809    0.024056    0.024453    0.031622
     0.048129    0.159288    0.159875    0.159996    0.160020    0.160125
     0.161143    0.162292    0.219334    0.219861    0.244146    0.246845
     0.263039    0.356685    0.357614    0.357890    0.358243    0.364342
     0.366053    0.377365    0.384015    0.428425    0.434890    0.449166
     0.457656    0.468642    0.486883    0.504263    0.535775    0.790417

 Minimum search - taking simple RFO step
 Searching for Lamda that Minimizes Along All modes
 Value Taken    Lamda =  -0.00856183
 Step Taken.  Stepsize is  0.299507

                             Maximum     Tolerance    Cnvgd?
         Gradient           0.024564      0.000300      NO
         Displacement       0.150618      0.001200      NO
         Energy change     -0.005839      0.000001      NO


 New Cartesian Coordinates Obtained by Inverse Iteration

 Displacement from previous Coordinates is:  0.263870
 ----------------------------------------------------------------
             Standard Nuclear Orientation (Angstroms)
    I     Atom           X                Y                Z
 ----------------------------------------------------------------
    1      C       2.1902034705    -0.6900662571    -0.0155258045
    2      C       2.1540154012     0.7096466248    -0.0087421644
    3      C       0.9336997746     1.4582851084     0.0083148632
    4      C      -0.2358611464     0.6438956037     0.0165358101
    5      C      -0.2262909775    -0.7465893011    -0.0054189754
    6      C       0.9985537906    -1.4803636048    -0.0202165485
    7      N      -1.6059903534     1.0604401389     0.0138926730
    8      C      -1.6230518368    -1.1668149927     0.0166232697
    9      C      -2.4373703357     0.0087893778     0.0125269830
   10      H      -1.9089318271     2.0336330953    -0.0625145509
   11      H      -2.0053180453    -2.1886652074     0.0207288709
   12      H      -3.5204959273     0.1250463724    -0.0146289299
   13      H       3.1010859386     1.2613697669    -0.0009154289
   14      H       0.9055958671     2.5490772213     0.0465512189
   15      H       3.1632985995    -1.1929674251    -0.0080977178
   16      H       1.0199525587    -2.5721640288     0.0014124127
 ----------------------------------------------------------------
 Molecular Point Group                 C1    NOp =  1
 Largest Abelian Subgroup              C1    NOp =  1
 Nuclear Repulsion Energy =         395.50969622 hartrees
 There are       31 alpha and       31 beta electrons
 Applying Cartesian multipole field
    Component          Value
    ---------          -----
     (2,0,0)        1.00000E-11
     (0,2,0)        2.00000E-11
     (0,0,2)       -3.00000E-11
 Nucleus-field energy     =     0.0000000120 hartrees
 Requested basis set is 6-31+G(d)
 There are 59 shells and 185 basis functions
 A cutoff of  1.0D-12 yielded   1656 shell pairs
 There are     17099 function pairs
 Smallest overlap matrix eigenvalue = 1.53E-06
 Guess MOs from SCF MO coefficient file

 -----------------------------------------------------------------------
  General SCF calculation program by
  Eric Jon Sundstrom, Paul Horn, Yuezhi Mao, Dmitri Zuev, Alec White,
  David Stuck, Shaama M.S., Shane Yost, Joonho Lee, David Small,
  Daniel Levine, Susi Lehtola, Hugh Burton, Evgeny Epifanovsky,
  Bang C. Huynh
 -----------------------------------------------------------------------
 Exchange:  PBE      Correlation:  PBE
 Using SG-1 standard quadrature grid
 using 4 threads for integral computing
 -------------------------------------------------------
 OpenMP Integral computing Module                
 Release: version 1.0, May 2013, Q-Chem Inc. Pittsburgh 
 -------------------------------------------------------
 A restricted SCF calculation will be
 performed using DIIS
 SCF converges when DIIS error is below 1.0e-08
 ---------------------------------------
  Cycle       Energy         DIIS error
 ---------------------------------------
    1    -363.3555647349      1.09e-03  
    2    -363.3616900117      2.66e-04  
    3    -363.3606821494      5.45e-04  
    4    -363.3619619228      9.52e-05  
    5    -363.3619895192      5.42e-05  
    6    -363.3620033894      1.22e-05  
    7    -363.3620041099      3.17e-06  
    8    -363.3620041560      1.16e-06  
    9    -363.3620041621      2.87e-07  
   10    -363.3620041624      1.42e-07  
   11    -363.3620041625      2.71e-08  
   12    -363.3620041625      1.23e-08  
   13    -363.3620041625      2.42e-09  Convergence criterion met
 ---------------------------------------
 SCF time:   CPU 26.38s  wall 7.00s 
 SCF   energy in the final basis set =     -363.3620041625
 Total energy in the final basis set =     -363.3620041625
 
 Direct TDDFT/TDA calculation will be performed
 Exchange:  PBE      Correlation:  PBE
 Using SG-1 standard quadrature grid
 Singlet excitation energies requested
 CIS energy converged when residual is below 10e- 6
 ---------------------------------------------------
 Iter    Rts Conv    Rts Left    Ttl Dev     Max Dev
 ---------------------------------------------------
   1         0           3      0.003979    0.001876
   2         0           3      0.002843    0.001501
   3         0           3      0.001322    0.000595
   4         0           3      0.000249    0.000137
   5         0           3      0.000057    0.000030
   6         1           2      0.000012    0.000008
   7         2           1      0.000004    0.000002
   8         3           0      0.000001    0.000001    Roots Converged
 ---------------------------------------------------
 
 ---------------------------------------------------
         TDDFT/TDA Excitation Energies              
 ---------------------------------------------------

 Excited state   1: excitation energy (eV) =    3.9132
 Total energy for state  1:                  -363.21819571 au
    Multiplicity: Singlet
    Trans. Mom.:  0.5212 X  -0.5249 Y  -0.0041 Z
    Strength   :     0.0524643527
    D(   29) --> V(    1) amplitude =  0.2825
    D(   31) --> V(    1) amplitude =  0.9034

 Excited state   2: excitation energy (eV) =    4.2613
 Total energy for state  2:                  -363.20540260 au
    Multiplicity: Singlet
    Trans. Mom.: -0.0550 X   0.0311 Y   0.1041 Z
    Strength   :     0.0015486479
    D(   31) --> V(    2) amplitude =  0.9902

 Excited state   3: excitation energy (eV) =    4.5717
 Total energy for state  3:                  -363.19399835 au
    Multiplicity: Singlet
    Trans. Mom.: -0.0336 X   0.1829 Y   0.0023 Z
    Strength   :     0.0038760424
    D(   30) --> V(    1) amplitude =  0.7020
    D(   31) --> V(    3) amplitude = -0.6663
 
 ---------------------------------------------------
 Calculating Relaxed Density
 ---------------------------------------------------
 Iter    Rts Conv    Rts Left    Ttl Dev     Max Dev
 ---------------------------------------------------
   1         0           3      0.002717    0.001351
   2         0           3      0.000940    0.000508
   3         0           3      0.000242    0.000112
   4         0           3      0.000073    0.000036
   5         0           3      0.000010    0.000006
   6         3           0      0.000000    0.000000    Roots Converged
 ---------------------------------------------------
  SETman timing summary (seconds)
  CPU time               107.34s
  System time              0.00s
  Wall time               26.99s
 
 --------------------------------------------------------------
 
                    Orbital Energies (a.u.)
 --------------------------------------------------------------
 
 Alpha MOs
 -- Occupied --
-14.0601  -9.9398  -9.9395  -9.9167  -9.9094  -9.9060  -9.9059  -9.9033
 -9.8957  -0.9000  -0.7623  -0.7006  -0.6694  -0.6418  -0.5674  -0.5350
 -0.5197  -0.4885  -0.4312  -0.4231  -0.3904  -0.3865  -0.3741  -0.3566
 -0.3458  -0.3111  -0.3004  -0.2977  -0.2406  -0.2089  -0.1742
 -- Virtual --
 -0.0535  -0.0180  -0.0115   0.0025   0.0110   0.0126   0.0245   0.0270
  0.0452   0.0480   0.0519   0.0545   0.0707   0.0743   0.0933   0.0946
  0.0964   0.1107   0.1185   0.1222   0.1339   0.1375   0.1445   0.1459
  0.1546   0.1564   0.1647   0.1654   0.1762   0.1795   0.1830   0.1852
  0.1964   0.1990   0.2100   0.2169   0.2182   0.2198   0.2315   0.2378
  0.2509   0.2542   0.2586   0.2634   0.2689   0.2769   0.2916   0.3057
  0.3161   0.3179   0.3255   0.3538   0.3719   0.4060   0.4552   0.5250
  0.5477   0.6283   0.6331   0.6557   0.6686   0.6791   0.6796   0.6840
  0.6898   0.7020   0.7088   0.7269   0.7351   0.7434   0.7596   0.8023
  0.8339   0.8404   0.8455   0.8806   0.8925   0.8998   0.9051   0.9262
  0.9452   0.9773   0.9934   0.9973   1.0449   1.0658   1.0730   1.1171
  1.1234   1.1567   1.1688   1.1778   1.1954   1.2548   1.2568   1.2835
  1.3021   1.3297   1.3378   1.3762   1.4011   1.4072   1.4210   1.4303
  1.4857   1.5148   1.5577   1.7135   1.7409   1.7829   1.8149   1.8204
  1.8403   1.9005   1.9041   1.9253   1.9528   1.9800   2.0411   2.0761
  2.0883   2.1041   2.1388   2.1556   2.1851   2.1898   2.2149   2.2749
  2.3055   2.3654   2.4210   2.4436   2.5276   2.5463   2.5636   2.5824
  2.6474   2.6962   2.7318   2.7441   2.8385   2.8877   2.9543   3.1139
  3.2857   4.0394   4.1434   4.1902   4.2216   4.2525   4.2983   4.3754
  4.4225   4.6674
 --------------------------------------------------------------
 
          Ground-State Mulliken Net Atomic Charges

     Atom                 Charge (a.u.)
  ----------------------------------------
      1 C                    -0.011549
      2 C                    -0.390028
      3 C                    -0.409456
      4 C                    -1.316824
      5 C                     1.871263
      6 C                    -0.600583
      7 N                    -0.382577
      8 C                    -0.137782
      9 C                    -0.183472
     10 H                     0.409592
     11 H                     0.191855
     12 H                     0.202126
     13 H                     0.184538
     14 H                     0.191480
     15 H                     0.185048
     16 H                     0.196368
  ----------------------------------------
  Sum of atomic charges =     0.000000

 -----------------------------------------------------------------
                    Cartesian Multipole Moments
 -----------------------------------------------------------------
    Charge (ESU x 10^10)
                -0.0000
    Dipole Moment (Debye)
         X      -1.3832      Y       1.7472      Z      -0.0707
       Tot       2.2295
    Quadrupole Moments (Debye-Ang)
        XX     -45.3152     XY      -3.8232     YY     -44.5037
        XZ       0.4062     YZ      -0.2344     ZZ     -59.2536
    Octopole Moments (Debye-Ang^2)
       XXX     -16.0549    XXY       9.4501    XYY      -7.0607
       YYY      11.4145    XXZ      -0.6906    XYZ       0.6479
       YYZ      -0.2203    XZZ      -1.8401    YZZ       2.4711
       ZZZ      -0.2807
    Hexadecapole Moments (Debye-Ang^3)
      XXXX    -838.7552   XXXY     -23.8630   XXYY    -204.8634
      XYYY     -18.5734   YYYY    -378.5629   XXXZ       4.7073
      XXYZ      -1.5114   XYYZ       2.2447   YYYZ      -1.7033
      XXZZ    -196.1348   XYZZ      -3.7541   YYZZ     -96.9550
      XZZZ       2.7456   YZZZ      -1.0545   ZZZZ     -75.2344
 -----------------------------------------------------------------
 Calculating analytic gradient of the CIS energy
 CIS relaxed dipole moment
            1
    1   2.1570941
    2  -2.7348289
    3  -0.0044100
	Magnitude:	 3.483 au	 8.853 Debye
 CIS 2 State Energy is -363.2054025962
 Gradient of the state energy (including CIS Excitation Energy)
            1           2           3           4           5           6
    1   0.0096100   0.0054963   0.0125056   0.0043863   0.0152429  -0.0054223
    2   0.0163743  -0.0107493   0.0324669  -0.0489636   0.0374161  -0.0249595
    3   0.0003522  -0.0007696  -0.0023603   0.0050266  -0.0036189  -0.0027910
            7           8           9          10          11          12
    1  -0.0153739  -0.0137343  -0.0301565   0.0121364  -0.0007186   0.0037970
    2   0.0379466   0.0022366  -0.0060200  -0.0336708   0.0010492  -0.0037153
    3  -0.0002519   0.0014106   0.0004213  -0.0005891   0.0000798  -0.0004487
           13          14          15          16
    1   0.0006067   0.0019077   0.0002784  -0.0005617
    2   0.0003201  -0.0001500   0.0002444   0.0001741
    3   0.0002287   0.0013900   0.0005461   0.0013742
 Gradient time:  CPU 22.91 s  wall 5.76 s
 Geometry Optimization Parameters
   NAtoms,    NIC,     NZ,  NCons,   NDum,   NFix, NCnnct, MaxDiis
       16     116       0       0       0       0       0       0

 Cartesian Hessian Update
 Hessian updated using BFGS update


** GEOMETRY OPTIMIZATION IN DELOCALIZED INTERNAL COORDINATES **
   Searching for a Minimum

   Optimization Cycle:  50

                       Coordinates (Angstroms)
     ATOM                X               Y               Z
      1  C         2.1902034705   -0.6900662571   -0.0155258045
      2  C         2.1540154012    0.7096466248   -0.0087421644
      3  C         0.9336997746    1.4582851084    0.0083148632
      4  C        -0.2358611464    0.6438956037    0.0165358101
      5  C        -0.2262909775   -0.7465893011   -0.0054189754
      6  C         0.9985537906   -1.4803636048   -0.0202165485
      7  N        -1.6059903534    1.0604401389    0.0138926730
      8  C        -1.6230518368   -1.1668149927    0.0166232697
      9  C        -2.4373703357    0.0087893778    0.0125269830
     10  H        -1.9089318271    2.0336330953   -0.0625145509
     11  H        -2.0053180453   -2.1886652074    0.0207288709
     12  H        -3.5204959273    0.1250463724   -0.0146289299
     13  H         3.1010859386    1.2613697669   -0.0009154289
     14  H         0.9055958671    2.5490772213    0.0465512189
     15  H         3.1632985995   -1.1929674251   -0.0080977178
     16  H         1.0199525587   -2.5721640288    0.0014124127
   Point Group: c1    Number of degrees of freedom:    42


   Energy is   -363.205402596

 Hessian updated using BFGS update

 42 Hessian modes will be used to form the next step
  Hessian Eigenvalues:
     0.020094    0.020584    0.021263    0.021774    0.022650    0.023196
     0.023248    0.023566    0.023832    0.024112    0.025166    0.032223
     0.064739    0.159293    0.159984    0.160004    0.160049    0.160126
     0.161429    0.162528    0.219790    0.232088    0.246257    0.246870
     0.263236    0.356899    0.357632    0.357905    0.358328    0.364343
     0.366178    0.379463    0.392227    0.428711    0.439430    0.449163
     0.464790    0.471270    0.487417    0.505492    0.634454    1.044003

 Minimum search - taking simple RFO step
 Searching for Lamda that Minimizes Along All modes
 Value Taken    Lamda =  -0.00664384
 Step Taken.  Stepsize is  0.158322

                             Maximum     Tolerance    Cnvgd?
         Gradient           0.035199      0.000300      NO
         Displacement       0.071477      0.001200      NO
         Energy change      0.007640      0.000001      NO


 New Cartesian Coordinates Obtained by Inverse Iteration

 Displacement from previous Coordinates is:  0.144908
 ----------------------------------------------------------------
             Standard Nuclear Orientation (Angstroms)
    I     Atom           X                Y                Z
 ----------------------------------------------------------------
    1      C       2.1893395533    -0.6945377606    -0.0063236843
    2      C       2.1500568510     0.7074677404    -0.0046222763
    3      C       0.9265451567     1.4436090063     0.0054634708
    4      C      -0.2425973474     0.6525979378     0.0062338755
    5      C      -0.2315527361    -0.7558327802    -0.0009910288
    6      C       0.9987142209    -1.4717791511    -0.0049975384
    7      N      -1.5999491607     1.0641075424     0.0104029744
    8      C      -1.6138199895    -1.1744508962     0.0056374735
    9      C      -2.4203602195     0.0092995879     0.0041680047
   10      H      -1.9227156540     2.0564834035    -0.0236169126
   11      H      -1.9995957480    -2.1952714999     0.0060780837
   12      H      -3.5055603797     0.1345190055    -0.0094706260
   13      H       3.0930624694     1.2650767439    -0.0039393066
   14      H       0.8974099390     2.5358873382     0.0184407576
   15      H       3.1607016194    -1.1999828576    -0.0048346143
   16      H       1.0234163763    -2.5646408676     0.0028973282
 ----------------------------------------------------------------
 Molecular Point Group                 C1    NOp =  1
 Largest Abelian Subgroup              C1    NOp =  1
 Nuclear Repulsion Energy =         396.24775792 hartrees
 There are       31 alpha and       31 beta electrons


 *******************************************
 **  MAXIMUM OPTIMIZATION CYCLES REACHED  **
 *******************************************

 Q-Chem fatal error occurred in module 0, line  455:

 Maximum optimization cycles reached

