
Running Job 1 of 1 QfuncsMN15-VI-3rd.in
qchem QfuncsMN15-VI-3rd.in_87174.0 /scratch/scaparas/job_3585209/qchem87174/ 0
/cm/shared/apps/spack/cpu/opt/spack/linux-centos8-zen2/gcc-10.2.0/qchem-5.3-5qddma6gy34jvefiv7mbcb7qm253n45r/exe/qcprog.exe_s QfuncsMN15-VI-3rd.in_87174.0 /scratch/scaparas/job_3585209/qchem87174/
                  Welcome to Q-Chem
     A Quantum Leap Into The Future Of Chemistry


 Q-Chem 5.3, Q-Chem, Inc., Pleasanton, CA (2020)

 License issued to: University of California, San Diego (site)

 Yihan Shao,  Zhengting Gan,  E. Epifanovsky,  A. T. B. Gilbert,  M. Wormit,  
 J. Kussmann,  A. W. Lange,  A. Behn,  Jia Deng,  Xintian Feng,  D. Ghosh,  
 M. Goldey,  P. R. Horn,  L. D. Jacobson,  I. Kaliman,  T. Kus,  A. Landau,  
 Jie Liu,  E. I. Proynov,  R. M. Richard,  R. P. Steele,  E. J. Sundstrom,  
 H. L. Woodcock III,  P. M. Zimmerman,  D. Zuev,  B. Alam,  B. Albrecht,  
 A. Aldossary,  E. Alguire,  S. A. Baeppler,  D. Barton,  Z. Benda,  
 Y. A. Bernard,  E. J. Berquist,  K. B. Bravaya,  H. Burton,  K. Carter-Fenk,  
 D. Casanova,  Chun-Min Chang,  Yunqing Chen,  A. Chien,  K. D. Closser,  
 M. P. Coons,  S. Coriani,  S. Dasgupta,  A. L. Dempwolff,  M. Diedenhofen,  
 Hainam Do,  R. G. Edgar,  Po-Tung Fang,  S. Faraji,  S. Fatehi,  
 Qingguo Feng,  J. Fosso-Tande,  J. Gayvert,  Qinghui Ge,  A. Ghysels,  
 G. Gidofalvi,  J. Gomes,  J. Gonthier,  S. Gulania,  A. Gunina,  D. Hait,  
 M. W. D. Hanson-Heine,  S. Hammes-Schiffer,  P. H. P. Harbach,  
 A. W. Hauser,  M. F. Herbst,  J. E. Herr,  E. G. Hohenstein,  Z. C. Holden,  
 S. Houck,  Kerwin Hui,  B. C. Huynh,  M. Ivanov,  T.-C. Jagau,  Hyunjun Ji,  
 B. Kaduk,  K. Khistyaev,  Jaehoon Kim,  P. Klunzinger,  K. Koh,  
 D. Kosenkov,  L. Koulias,  T. Kowalczyk,  C. M. Krauter,  A. Kunitsa,  
 Ka Un Lao,  A. Laurent,  K. V. Lawler,  Joonho Lee,  D. Lefrancois,  
 S. Lehtola,  D. S. Levine,  Yi-Pei Li,  You-Sheng Lin,  Fenglai Liu,  
 Kuan-Yu Liu,  E. Livshits,  M. Loipersberger,  A. Luenser,  P. Manohar,  
 E. Mansoor,  S. F. Manzer,  Shan-Ping Mao,  Yuezhi Mao,  N. Mardirossian,  
 A. V. Marenich,  T. Markovich,  L. A. Martinez-Martinez,  S. A. Maurer,  
 N. J. Mayhall,  S. C. McKenzie,  J.-M. Mewes,  P. Morgante,  A. F. Morrison,  
 J. W. Mullinax,  K. Nanda,  T. S. Nguyen-Beck,  R. Olivares-Amaya,  
 K. J. Oosterbaan,  J. A. Parkhill,  S. K. Paul,  F. Pavosevic,  Zheng Pei,  
 T. M. Perrine,  F. Plasser,  P. Pokhilko,  S. Prager,  A. Prociuk,  
 E. Ramos,  B. Rana,  D. R. Rehn,  F. Rob,  E. Rossomme,  M. Scheurer,  
 M. Schneider,  N. Sergueev,  S. M. Sharada,  S. Sharma,  W. Skomorowski,  
 D. W. Small,  T. Stauch,  C. J. Stein,  T. Stein,  Yu-Chuan Su,  
 S. P. Veccham,  Zhen Tao,  A. J. W. Thom,  A. Tkatchenko,  T. Tsuchimochi,  
 N. M. Tubman,  L. Vogt,  M. L. Vidal,  O. Vydrov,  M. A. Watson,  J. Wenzel,  
 M. de Wergifosse,  T. A. Wesolowski,  A. White,  J. Witte,  A. Yamada,  
 Jun Yang,  K. Yao,  S. Yeganeh,  S. R. Yost,  Zhi-Qiang You,  A. Zech,  
 Igor Ying Zhang,  Xing Zhang,  Yan Zhao,  Ying Zhu,  B. R. Brooks,  
 G. K. L. Chan,  C. J. Cramer,  M. S. Gordon,  W. J. Hehre,  A. Klamt,  
 M. W. Schmidt,  C. D. Sherrill,  D. G. Truhlar,  A. Aspuru-Guzik,  R. Baer,  
 A. T. Bell,  N. A. Besley,  Jeng-Da Chai,  A. E. DePrince, III,  
 R. A. DiStasio Jr.,  A. Dreuw,  B. D. Dunietz,  T. R. Furlani,  
 Chao-Ping Hsu,  Yousung Jung,  Jing Kong,  D. S. Lambrecht,  WanZhen Liang,  
 C. Ochsenfeld,  V. A. Rassolov,  L. V. Slipchenko,  J. E. Subotnik,  
 T. Van Voorhis,  J. M. Herbert,  A. I. Krylov,  P. M. W. Gill,  M. Head-Gordon

 Contributors to earlier versions of Q-Chem not listed above: 
 R. D. Adamson,  B. Austin,  J. Baker,  G. J. O. Beran,  K. Brandhorst,  
 S. T. Brown,  E. F. C. Byrd,  A. K. Chakraborty,  C.-L. Cheng,  
 Siu Hung Chien,  D. M. Chipman,  D. L. Crittenden,  H. Dachsel,  
 R. J. Doerksen,  A. D. Dutoi,  L. Fusti-Molnar,  W. A. Goddard III,  
 A. Golubeva-Zadorozhnaya,  S. R. Gwaltney,  G. Hawkins,  A. Heyden,  
 S. Hirata,  G. Kedziora,  F. J. Keil,  C. Kelley,  Jihan Kim,  R. A. King,  
 R. Z. Khaliullin,  P. P. Korambath,  W. Kurlancheek,  A. M. Lee,  M. S. Lee,  
 S. V. Levchenko,  Ching Yeh Lin,  D. Liotard,  R. C. Lochan,  I. Lotan,  
 P. E. Maslen,  N. Nair,  D. P. O'Neill,  D. Neuhauser,  E. Neuscamman,  
 C. M. Oana,  R. Olson,  B. Peters,  R. Peverati,  P. A. Pieniazek,  
 Y. M. Rhee,  J. Ritchie,  M. A. Rohrdanz,  E. Rosta,  N. J. Russ,  
 H. F. Schaefer III,  N. E. Schultz,  N. Shenvi,  A. C. Simmonett,  A. Sodt,  
 D. Stuck,  K. S. Thanthiriwatte,  V. Vanovschi,  Tao Wang,  A. Warshel,  
 C. F. Williams,  Q. Wu,  X. Xu,  W. Zhang

 Please cite Q-Chem as follows:
 Y. Shao et al., Mol. Phys. 113, 184-215 (2015)
 DOI: 10.1080/00268976.2014.952696

 Q-Chem 5.3.1 for Intel X86 EM64T Linux

 Parts of Q-Chem use Armadillo 9.800.1 (Horizon Scraper).
 http://arma.sourceforge.net/

 Q-Chem begins on Wed Jun 23 13:41:51 2021  

Host: 
0

     Scratch files written to /scratch/scaparas/job_3585209/qchem87174//
 Aug2920 |scratch|qcdevops|jenkins|workspace|build_RNUM    
Processing $rem in /cm/shared/apps/spack/cpu/opt/spack/linux-centos8-zen2/gcc-10.2.0/qchem-5.3-5qddma6gy34jvefiv7mbcb7qm253n45r/config/preferences:
Processing $rem in /home/scaparas/.qchemrc:

Checking the input file for inconsistencies... 	...done.

--------------------------------------------------------------
User input:
--------------------------------------------------------------
$molecule
0 1
C   -2.1510630    0.6892080    0.0000880
C   -2.1279270   -0.7158180    0.0000750
C   -0.9322970   -1.4131000   -0.0000110
C    0.2469110   -0.6702010   -0.0000420
C    0.2481930    0.7482990    0.0000000
C   -0.9794740    1.4235260    0.0000320
N    1.5617740   -1.0775920   -0.0002850
C    1.6201330    1.1629000   -0.0001570
C    2.3820130    0.0308060    0.0002480
H    1.8763150   -2.0300110    0.0004380
H    1.9921730    2.1730100   -0.0003480
H    3.4525490   -0.0824250    0.0004080
H   -3.0615940   -1.2620200    0.0000880
H   -0.9172520   -2.4953420   -0.0000730
H   -3.1042030    1.2007850    0.0000900
H   -1.0093480    2.5054210   -0.0000150
$end

$rem
BASIS  =  6-31+G*
GUI  =  2
JOB_TYPE  =  Optimization
METHOD  = MN15
SCF_CONVERGENCE  =  8
THRESH = 12
CIS_N_ROOTS  = 3
CIS_SINGLETS = true
CIS_TRIPLETS = false
CIS_STATE_DERIV = 3
MEM_STATIC = 500
MEM_TOTAL = 3000
$end
--------------------------------------------------------------
 ----------------------------------------------------------------
             Standard Nuclear Orientation (Angstroms)
    I     Atom           X                Y                Z
 ----------------------------------------------------------------
    1      C       2.1510629040    -0.6892079969     0.0000583065
    2      C       2.1279268385     0.7158180020     0.0000481775
    3      C       0.9322968051     1.4130999466    -0.0000206639
    4      C      -0.2469111607     0.6702008918    -0.0000373513
    5      C      -0.2481930942    -0.7482991083     0.0000020775
    6      C       0.9794739374    -1.4235260513     0.0000165335
    7      N      -1.5617741827     1.0775918311    -0.0002621374
    8      C      -1.6201330769    -1.1629001718    -0.0001374500
    9      C      -2.3820131241    -0.0308062080     0.0002797387
   10      H      -1.8763152174     2.0300108152     0.0004667797
   11      H      -1.9921730325    -2.1730101887    -0.0003253498
   12      H      -3.4525491271     0.0824247420     0.0004541695
   13      H       3.0615938132     1.2620200454     0.0000497686
   14      H       0.9172517540     2.4953419460    -0.0000804893
   15      H       3.1042029277    -1.2007849526     0.0000467087
   16      H       1.0093479871    -2.5054210498    -0.0000328375
 ----------------------------------------------------------------
 Molecular Point Group                 C1    NOp =  1
 Largest Abelian Subgroup              C1    NOp =  1
 Nuclear Repulsion Energy =         401.33686680 hartrees
 There are       31 alpha and       31 beta electrons
 Requested basis set is 6-31+G(d)
 There are 59 shells and 185 basis functions

 Total QAlloc Memory Limit   3000 MB
 Mega-Array Size       489 MB
 MEM_STATIC part       500 MB
 A cutoff of  1.0D-12 yielded   1657 shell pairs
 There are     17105 function pairs
 Smallest overlap matrix eigenvalue = 1.26E-06

 Scale SEOQF with 1.000000e-01/1.000000e-01/1.000000e-01

 Standard Electronic Orientation quadrupole field applied
 Nucleus-field energy     =     0.0000000117 hartrees
 Guess from superposition of atomic densities
 Warning:  Energy on first SCF cycle will be non-variational
 SAD guess density has 62.000000 electrons

 -----------------------------------------------------------------------
  General SCF calculation program by
  Eric Jon Sundstrom, Paul Horn, Yuezhi Mao, Dmitri Zuev, Alec White,
  David Stuck, Shaama M.S., Shane Yost, Joonho Lee, David Small,
  Daniel Levine, Susi Lehtola, Hugh Burton, Evgeny Epifanovsky,
  Bang C. Huynh
 -----------------------------------------------------------------------
 Exchange:     0.4400 Hartree-Fock + 1.0000 MN15
 Correlation:  1.0000 MN15
 Using SG-3 standard quadrature grid
 using 4 threads for integral computing
 -------------------------------------------------------
 OpenMP Integral computing Module                
 Release: version 1.0, May 2013, Q-Chem Inc. Pittsburgh 
 -------------------------------------------------------
 A restricted SCF calculation will be
 performed using DIIS
 SCF converges when DIIS error is below 1.0e-08
 ---------------------------------------
  Cycle       Energy         DIIS error
 ---------------------------------------
    1    -366.1446785733      5.61e-02  
    2    -363.2973961013      4.24e-03  
    3    -363.3132309892      4.07e-03  
    4    -363.3871190261      9.39e-04  
    5    -363.3903787637      3.88e-04  
    6    -363.3910032045      7.59e-05  
    7    -363.3910243041      3.02e-05  
    8    -363.3910282357      4.78e-06  
    9    -363.3910283252      2.82e-06  
   10    -363.3910283666      6.07e-07  
   11    -363.3910283691      3.38e-07  
   12    -363.3910283697      6.78e-08  
   13    -363.3910283697      4.08e-08  
   14    -363.3910283697      1.21e-08  
   15    -363.3910283697      3.52e-09  Convergence criterion met
 ---------------------------------------
 SCF time:   CPU 263.99s  wall 226.00s 
 SCF   energy in the final basis set =     -363.3910283697
 Total energy in the final basis set =     -363.3910283697
 
 Direct TDDFT/TDA calculation will be performed
 Exchange:     0.4400 Hartree-Fock + 1.0000 MN15
 Correlation:  1.0000 MN15
 Using SG-3 standard quadrature grid
 Singlet excitation energies requested
 CIS energy converged when residual is below 10e- 6
 ---------------------------------------------------
 Iter    Rts Conv    Rts Left    Ttl Dev     Max Dev
 ---------------------------------------------------
   1         0           3      0.003789    0.001808
   2         0           3      0.001133    0.000564
   3         0           3      0.000470    0.000241
   4         0           3      0.000183    0.000083
   5         0           3      0.000067    0.000026
   6         0           3      0.000023    0.000008
   7         0           3      0.000010    0.000004
   8         2           1      0.000003    0.000002
   9         3           0      0.000002    0.000001    Roots Converged
 ---------------------------------------------------
 
 ---------------------------------------------------
         TDDFT/TDA Excitation Energies              
 ---------------------------------------------------

 Excited state   1: excitation energy (eV) =    5.1187
 Total energy for state  1:                  -363.20291823 au
    Multiplicity: Singlet
    Trans. Mom.:  0.2536 X   0.3727 Y  -0.0001 Z
    Strength   :     0.0254830605
    D(   30) --> V(    1) amplitude =  0.7824
    D(   31) --> V(    3) amplitude = -0.5530

 Excited state   2: excitation energy (eV) =    5.2126
 Total energy for state  2:                  -363.19946921 au
    Multiplicity: Singlet
    Trans. Mom.:  0.7769 X  -0.5976 Y  -0.0002 Z
    Strength   :     0.1226874803
    D(   30) --> V(    3) amplitude =  0.3057
    D(   31) --> V(    1) amplitude =  0.8933

 Excited state   3: excitation energy (eV) =    5.9300
 Total energy for state  3:                  -363.17310579 au
    Multiplicity: Singlet
    Trans. Mom.: -0.0003 X   0.0002 Y  -0.1888 Z
    Strength   :     0.0051809897
    D(   31) --> V(    2) amplitude =  0.9690
 
 ---------------------------------------------------
 Calculating Relaxed Density
 ---------------------------------------------------
 Iter    Rts Conv    Rts Left    Ttl Dev     Max Dev
 ---------------------------------------------------
   1         0           3      0.001091    0.000531
   2         0           3      0.000463    0.000232
   3         0           3      0.000124    0.000050
   4         0           3      0.000039    0.000019
   5         0           3      0.000009    0.000004
   6         3           0      0.000000    0.000000    Roots Converged
 ---------------------------------------------------
  SETman timing summary (seconds)
  CPU time               973.49s
  System time              0.00s
  Wall time              944.60s
 
 --------------------------------------------------------------
 
                    Orbital Energies (a.u.)
 --------------------------------------------------------------
 
 Alpha MOs
 -- Occupied --
-14.1727 -10.1062 -10.1034 -10.0728 -10.0681 -10.0677 -10.0674 -10.0624
-10.0594  -1.0277  -0.8864  -0.8273  -0.7781  -0.7596  -0.6679  -0.6365
 -0.6241  -0.5842  -0.5228  -0.5131  -0.4781  -0.4725  -0.4700  -0.4513
 -0.4309  -0.3931  -0.3794  -0.3724  -0.3183  -0.2562  -0.2393
 -- Virtual --
  0.0095   0.0461   0.0469   0.0632   0.0699   0.0811   0.0849   0.0864
  0.0999   0.1079   0.1138   0.1141   0.1334   0.1372   0.1494   0.1536
  0.1565   0.1753   0.1831   0.1852   0.1991   0.2066   0.2106   0.2121
  0.2148   0.2205   0.2293   0.2379   0.2382   0.2406   0.2447   0.2504
  0.2626   0.2670   0.2742   0.2803   0.2813   0.2877   0.2966   0.3018
  0.3118   0.3173   0.3216   0.3409   0.3473   0.3542   0.3604   0.3784
  0.4003   0.4092   0.4187   0.4440   0.4733   0.4929   0.5533   0.6164
  0.6624   0.6934   0.7066   0.7238   0.7456   0.7465   0.7535   0.7606
  0.7680   0.7774   0.7836   0.8008   0.8185   0.8230   0.8374   0.8812
  0.9193   0.9316   0.9421   0.9620   0.9681   0.9756   0.9942   1.0049
  1.0288   1.0569   1.0733   1.0937   1.1203   1.1346   1.1370   1.1961
  1.1994   1.2234   1.2375   1.2477   1.2709   1.3275   1.3337   1.3408
  1.3821   1.4154   1.4311   1.4597   1.4612   1.4624   1.4907   1.4980
  1.5550   1.5986   1.6525   1.7827   1.8307   1.8662   1.8769   1.9033
  1.9332   1.9658   1.9746   1.9842   2.0445   2.0731   2.1152   2.1427
  2.1450   2.1714   2.2197   2.2244   2.2283   2.2533   2.2784   2.3383
  2.3707   2.4048   2.5105   2.5149   2.5857   2.6074   2.6126   2.6402
  2.6778   2.7558   2.7876   2.7913   2.8961   2.9150   3.0407   3.1566
  3.3498   4.1022   4.1888   4.2184   4.2520   4.2860   4.3205   4.3976
  4.4338   4.6910
 --------------------------------------------------------------
 
          Ground-State Mulliken Net Atomic Charges

     Atom                 Charge (a.u.)
  ----------------------------------------
      1 C                     0.001777
      2 C                    -0.431256
      3 C                    -0.047983
      4 C                    -0.650117
      5 C                     0.909679
      6 C                    -0.627027
      7 N                    -0.561087
      8 C                     0.316410
      9 C                    -0.333772
     10 H                     0.399905
     11 H                     0.178193
     12 H                     0.186449
     13 H                     0.162758
     14 H                     0.165593
     15 H                     0.161549
     16 H                     0.168931
  ----------------------------------------
  Sum of atomic charges =     0.000000

 -----------------------------------------------------------------
                    Cartesian Multipole Moments
 -----------------------------------------------------------------
    Charge (ESU x 10^10)
                -0.0000
    Dipole Moment (Debye)
         X      -1.5037      Y       1.5518      Z       0.0010
       Tot       2.1609
    Quadrupole Moments (Debye-Ang)
        XX     -45.4495     XY      -3.1455     YY     -44.6698
        XZ      -0.0032     YZ       0.0032     ZZ     -58.5772
    Octopole Moments (Debye-Ang^2)
       XXX     -15.1371    XXY       8.2677    XYY      -7.9811
       YYY      10.6323    XXZ       0.0073    XYZ      -0.0066
       YYZ       0.0021    XZZ      -2.0902    YZZ       2.0386
       ZZZ      -0.0011
    Hexadecapole Moments (Debye-Ang^3)
      XXXX    -816.1589   XXXY     -21.6403   XXYY    -196.6683
      XYYY     -19.9906   YYYY    -370.8645   XXXZ      -0.0231
      XXYZ       0.0128   XYYZ      -0.0070   YYYZ       0.0139
      XXZZ    -187.4606   XYZZ      -3.9171   YYZZ     -92.8694
      XZZZ      -0.0009   YZZZ       0.0029   ZZZZ     -72.1560
 -----------------------------------------------------------------
 Calculating analytic gradient of the CIS energy
 CIS relaxed dipole moment
            1
    1   1.9356258
    2  -2.0072233
    3  -0.0005928
	Magnitude:	 2.788 au	 7.088 Debye
 CIS 3 State Energy is -363.1731057934
 Gradient of the state energy (including CIS Excitation Energy)
            1           2           3           4           5           6
    1  -0.0130854  -0.0162794   0.0294729  -0.0158213   0.0044414   0.0075640
    2  -0.0134204   0.0238969  -0.0080240   0.0035505  -0.0040347   0.0102912
    3   0.0000005  -0.0000029   0.0000102   0.0000049   0.0000208   0.0000121
            7           8           9          10          11          12
    1   0.0251028  -0.0363674  -0.0054418   0.0145480   0.0024213   0.0072485
    2   0.0675875   0.0230822  -0.0675990  -0.0389572   0.0064127  -0.0031904
    3  -0.0000685  -0.0000311   0.0000844  -0.0000116  -0.0000035  -0.0000070
           13          14          15          16
    1  -0.0030617   0.0024394  -0.0030735  -0.0001078
    2  -0.0017383  -0.0025721   0.0017713   0.0029440
    3  -0.0000010  -0.0000012  -0.0000025  -0.0000036
 Gradient time:  CPU 69.57 s  wall 69.91 s
 Geometry Optimization Parameters
   NAtoms,    NIC,     NZ,  NCons,   NDum,   NFix, NCnnct, MaxDiis
       16     116       0       0       0       0       0       0


** GEOMETRY OPTIMIZATION IN DELOCALIZED INTERNAL COORDINATES **
   Searching for a Minimum

   Optimization Cycle:   1

                       Coordinates (Angstroms)
     ATOM                X               Y               Z
      1  C         2.1510629040   -0.6892079969    0.0000583065
      2  C         2.1279268385    0.7158180020    0.0000481775
      3  C         0.9322968051    1.4130999466   -0.0000206639
      4  C        -0.2469111607    0.6702008918   -0.0000373513
      5  C        -0.2481930942   -0.7482991083    0.0000020775
      6  C         0.9794739374   -1.4235260513    0.0000165335
      7  N        -1.5617741827    1.0775918311   -0.0002621374
      8  C        -1.6201330769   -1.1629001718   -0.0001374500
      9  C        -2.3820131241   -0.0308062080    0.0002797387
     10  H        -1.8763152174    2.0300108152    0.0004667797
     11  H        -1.9921730325   -2.1730101887   -0.0003253498
     12  H        -3.4525491271    0.0824247420    0.0004541695
     13  H         3.0615938132    1.2620200454    0.0000497686
     14  H         0.9172517540    2.4953419460   -0.0000804893
     15  H         3.1042029277   -1.2007849526    0.0000467087
     16  H         1.0093479871   -2.5054210498   -0.0000328375
   Point Group: c1    Number of degrees of freedom:    42


   Energy is   -363.173105793


 Attempting to generate delocalized internal coordinates
 Initial Hessian constructed with Jon Baker's OPTIMIZE code

 42 Hessian modes will be used to form the next step
  Hessian Eigenvalues:
     0.018594    0.019738    0.020011    0.020794    0.021683    0.022200
     0.022636    0.023004    0.023236    0.023608    0.023851    0.023984
     0.024127    0.160000    0.160000    0.160000    0.160000    0.160000
     0.160000    0.160000    0.220000    0.221879    0.226618    0.240111
     0.246509    0.357123    0.357170    0.357835    0.357899    0.364196
     0.364272    0.370088    0.384319    0.426334    0.434649    0.457693
     0.466917    0.471622    0.474685    0.475669    0.481247    0.509555

 Minimum search - taking simple RFO step
 Searching for Lamda that Minimizes Along All modes
 Value Taken    Lamda =  -0.01524424
 Step Taken.  Stepsize is  0.179647

                             Maximum     Tolerance    Cnvgd?
         Gradient           0.037815      0.000300      NO
         Displacement       0.092451      0.001200      NO
         Energy change     *********      0.000001      NO


 New Cartesian Coordinates Obtained by Inverse Iteration

 Displacement from previous Coordinates is:  0.247842
 ----------------------------------------------------------------
             Standard Nuclear Orientation (Angstroms)
    I     Atom           X                Y                Z
 ----------------------------------------------------------------
    1      C       2.1805985903    -0.7005266787    -0.0000157077
    2      C       2.1327965135     0.6979690029    -0.0000106622
    3      C       0.9073865991     1.4042496183    -0.0000091982
    4      C      -0.2562125125     0.6588402207     0.0000655601
    5      C      -0.2329783555    -0.7565268802     0.0000420989
    6      C       0.9975646272    -1.4441276164    -0.0000256636
    7      N      -1.5863799453     1.0728699081    -0.0000097369
    8      C      -1.5971933488    -1.1608860504     0.0000441935
    9      C      -2.3854036957     0.0057079164     0.0000140343
   10      H      -1.9202426968     2.0664575939     0.0006151003
   11      H      -1.9746383884    -2.1791882517    -0.0000791653
   12      H      -3.4644511459     0.1371889020     0.0000015474
   13      H       3.0645993047     1.2571113817    -0.0000255150
   14      H       0.8701816515     2.4896621010    -0.0000223585
   15      H       3.1426905578    -1.2059689104    -0.0000291166
   16      H       1.0247771961    -2.5302797645    -0.0000294291
 ----------------------------------------------------------------
 Molecular Point Group                 C1    NOp =  1
 Largest Abelian Subgroup              C1    NOp =  1
 Nuclear Repulsion Energy =         400.07704570 hartrees
 There are       31 alpha and       31 beta electrons
 Applying Cartesian multipole field
    Component          Value
    ---------          -----
     (2,0,0)        1.00000E-11
     (0,2,0)        2.00000E-11
     (0,0,2)       -3.00000E-11
 Nucleus-field energy     =     0.0000000118 hartrees
 Requested basis set is 6-31+G(d)
 There are 59 shells and 185 basis functions
 A cutoff of  1.0D-12 yielded   1658 shell pairs
 There are     17111 function pairs
 Smallest overlap matrix eigenvalue = 1.20E-06
 Guess MOs from SCF MO coefficient file

 -----------------------------------------------------------------------
  General SCF calculation program by
  Eric Jon Sundstrom, Paul Horn, Yuezhi Mao, Dmitri Zuev, Alec White,
  David Stuck, Shaama M.S., Shane Yost, Joonho Lee, David Small,
  Daniel Levine, Susi Lehtola, Hugh Burton, Evgeny Epifanovsky,
  Bang C. Huynh
 -----------------------------------------------------------------------
 Exchange:     0.4400 Hartree-Fock + 1.0000 MN15
 Correlation:  1.0000 MN15
 Using SG-3 standard quadrature grid
 using 4 threads for integral computing
 -------------------------------------------------------
 OpenMP Integral computing Module                
 Release: version 1.0, May 2013, Q-Chem Inc. Pittsburgh 
 -------------------------------------------------------
 A restricted SCF calculation will be
 performed using DIIS
 SCF converges when DIIS error is below 1.0e-08
 ---------------------------------------
  Cycle       Energy         DIIS error
 ---------------------------------------
    1    -363.3818289397      7.34e-04  
    2    -363.3850995082      2.23e-04  
    3    -363.3851959147      1.87e-04  
    4    -363.3853244615      6.32e-05  
    5    -363.3853405251      2.00e-05  
    6    -363.3853428198      7.37e-06  
    7    -363.3853431651      2.51e-06  
    8    -363.3853432067      8.20e-07  
    9    -363.3853432101      4.25e-07  
   10    -363.3853432110      6.41e-08  
   11    -363.3853432110      2.90e-08  
   12    -363.3853432110      1.16e-08  
   13    -363.3853432110      3.14e-09  Convergence criterion met
 ---------------------------------------
 SCF time:   CPU 229.05s  wall 230.00s 
 SCF   energy in the final basis set =     -363.3853432110
 Total energy in the final basis set =     -363.3853432110
 
 Direct TDDFT/TDA calculation will be performed
 Exchange:     0.4400 Hartree-Fock + 1.0000 MN15
 Correlation:  1.0000 MN15
 Using SG-3 standard quadrature grid
 Singlet excitation energies requested
 CIS energy converged when residual is below 10e- 6
 ---------------------------------------------------
 Iter    Rts Conv    Rts Left    Ttl Dev     Max Dev
 ---------------------------------------------------
   1         0           3      0.003824    0.001826
   2         0           3      0.001126    0.000605
   3         0           3      0.000453    0.000261
   4         0           3      0.000157    0.000084
   5         0           3      0.000053    0.000025
   6         0           3      0.000021    0.000013
   7         0           3      0.000007    0.000004
   8         3           0      0.000002    0.000001    Roots Converged
 ---------------------------------------------------
 
 ---------------------------------------------------
         TDDFT/TDA Excitation Energies              
 ---------------------------------------------------

 Excited state   1: excitation energy (eV) =    4.8906
 Total energy for state  1:                  -363.20561562 au
    Multiplicity: Singlet
    Trans. Mom.:  0.9155 X  -0.6774 Y  -0.0000 Z
    Strength   :     0.1554024178
    D(   30) --> V(    3) amplitude =  0.2474
    D(   31) --> V(    1) amplitude =  0.9108
    D(   31) --> V(    3) amplitude = -0.2125

 Excited state   2: excitation energy (eV) =    5.0873
 Total energy for state  2:                  -363.19838889 au
    Multiplicity: Singlet
    Trans. Mom.: -0.1024 X   0.2923 Y  -0.0000 Z
    Strength   :     0.0119534086
    D(   30) --> V(    1) amplitude =  0.7246
    D(   31) --> V(    3) amplitude = -0.6293

 Excited state   3: excitation energy (eV) =    5.5148
 Total energy for state  3:                  -363.18267819 au
    Multiplicity: Singlet
    Trans. Mom.: -0.0004 X   0.0001 Y  -0.1700 Z
    Strength   :     0.0039038801
    D(   31) --> V(    2) amplitude =  0.9769
 
 ---------------------------------------------------
 Calculating Relaxed Density
 ---------------------------------------------------
 Iter    Rts Conv    Rts Left    Ttl Dev     Max Dev
 ---------------------------------------------------
   1         0           3      0.001248    0.000627
   2         0           3      0.000506    0.000244
   3         0           3      0.000139    0.000059
   4         0           3      0.000039    0.000018
   5         0           3      0.000010    0.000005
   6         3           0      0.000000    0.000000    Roots Converged
 ---------------------------------------------------
  SETman timing summary (seconds)
  CPU time               950.46s
  System time              0.00s
  Wall time              930.37s
 
 --------------------------------------------------------------
 
                    Orbital Energies (a.u.)
 --------------------------------------------------------------
 
 Alpha MOs
 -- Occupied --
-14.1803 -10.1096 -10.1036 -10.0763 -10.0707 -10.0701 -10.0694 -10.0665
-10.0598  -1.0334  -0.8858  -0.8205  -0.7828  -0.7507  -0.6687  -0.6345
 -0.6221  -0.5827  -0.5204  -0.5134  -0.4790  -0.4757  -0.4710  -0.4431
 -0.4294  -0.3930  -0.3806  -0.3731  -0.3141  -0.2635  -0.2291
 -- Virtual --
  0.0057   0.0412   0.0464   0.0626   0.0703   0.0798   0.0840   0.0867
  0.0991   0.1078   0.1116   0.1134   0.1337   0.1361   0.1484   0.1534
  0.1550   0.1752   0.1782   0.1845   0.1951   0.2062   0.2092   0.2114
  0.2135   0.2196   0.2278   0.2373   0.2378   0.2403   0.2430   0.2499
  0.2608   0.2650   0.2753   0.2784   0.2790   0.2869   0.2928   0.3019
  0.3113   0.3149   0.3221   0.3396   0.3412   0.3511   0.3613   0.3804
  0.3998   0.4024   0.4167   0.4372   0.4669   0.4886   0.5528   0.6124
  0.6556   0.6939   0.7053   0.7222   0.7465   0.7470   0.7574   0.7591
  0.7638   0.7793   0.7877   0.7999   0.8174   0.8178   0.8355   0.8807
  0.9133   0.9260   0.9358   0.9649   0.9674   0.9760   0.9925   1.0062
  1.0260   1.0493   1.0677   1.0708   1.1173   1.1302   1.1379   1.1953
  1.1998   1.2214   1.2370   1.2452   1.2653   1.3228   1.3365   1.3437
  1.3769   1.4140   1.4283   1.4594   1.4615   1.4638   1.4877   1.4944
  1.5601   1.5984   1.6487   1.7645   1.8189   1.8602   1.8799   1.8939
  1.9234   1.9590   1.9611   1.9815   2.0307   2.0624   2.1108   2.1331
  2.1408   2.1441   2.2067   2.2173   2.2326   2.2603   2.2762   2.3289
  2.3732   2.4078   2.4952   2.5132   2.5822   2.5965   2.6032   2.6278
  2.6676   2.7488   2.7764   2.7835   2.8837   2.9135   3.0133   3.1515
  3.3313   4.1029   4.1801   4.2121   4.2426   4.2823   4.3173   4.3945
  4.4319   4.6868
 --------------------------------------------------------------
 
          Ground-State Mulliken Net Atomic Charges

     Atom                 Charge (a.u.)
  ----------------------------------------
      1 C                    -0.012992
      2 C                    -0.428333
      3 C                    -0.095398
      4 C                    -0.654603
      5 C                     0.956291
      6 C                    -0.538971
      7 N                    -0.522593
      8 C                     0.183259
      9 C                    -0.317383
     10 H                     0.403447
     11 H                     0.175489
     12 H                     0.187729
     13 H                     0.162353
     14 H                     0.165253
     15 H                     0.165326
     16 H                     0.171126
  ----------------------------------------
  Sum of atomic charges =     0.000000

 -----------------------------------------------------------------
                    Cartesian Multipole Moments
 -----------------------------------------------------------------
    Charge (ESU x 10^10)
                 0.0000
    Dipole Moment (Debye)
         X      -1.5513      Y       1.7910      Z       0.0008
       Tot       2.3694
    Quadrupole Moments (Debye-Ang)
        XX     -45.3404     XY      -4.1499     YY     -44.6663
        XZ      -0.0018     YZ       0.0027     ZZ     -58.8567
    Octopole Moments (Debye-Ang^2)
       XXX     -15.5672    XXY       9.8055    XYY      -8.5521
       YYY      12.2819    XXZ       0.0021    XYZ      -0.0057
       YYZ       0.0036    XZZ      -2.1792    YZZ       2.4957
       ZZZ      -0.0027
    Hexadecapole Moments (Debye-Ang^3)
      XXXX    -821.0751   XXXY     -23.2628   XXYY    -197.6260
      XYYY     -18.1482   YYYY    -371.8353   XXXZ      -0.0011
      XXYZ       0.0103   XYYZ      -0.0077   YYYZ       0.0103
      XXZZ    -189.8612   XYZZ      -2.3603   YYZZ     -93.9576
      XZZZ       0.0063   YZZZ      -0.0011   ZZZZ     -73.1242
 -----------------------------------------------------------------
 Calculating analytic gradient of the CIS energy
 CIS relaxed dipole moment
            1
    1   2.1755887
    2  -2.2392856
    3  -0.0007884
	Magnitude:	 3.122 au	 7.936 Debye
 CIS 3 State Energy is -363.1826781943
 Gradient of the state energy (including CIS Excitation Energy)
            1           2           3           4           5           6
    1   0.0025869   0.0009283   0.0031097  -0.0111408   0.0085895  -0.0022847
    2   0.0010817   0.0002399  -0.0015632  -0.0054249   0.0017859   0.0017991
    3   0.0000046  -0.0000003  -0.0000041   0.0000004   0.0000059  -0.0000067
            7           8           9          10          11          12
    1   0.0040958  -0.0114207  -0.0067800   0.0076493   0.0008268   0.0029082
    2   0.0328115   0.0136739  -0.0223361  -0.0208111  -0.0001924  -0.0002310
    3  -0.0000135   0.0000151   0.0000049   0.0000040  -0.0000051  -0.0000055
           13          14          15          16
    1   0.0005484  -0.0005713   0.0006310   0.0003235
    2  -0.0007644   0.0002965   0.0000394  -0.0004048
    3  -0.0000002   0.0000005  -0.0000000   0.0000002
 Gradient time:  CPU 70.14 s  wall 70.48 s
 Geometry Optimization Parameters
   NAtoms,    NIC,     NZ,  NCons,   NDum,   NFix, NCnnct, MaxDiis
       16     116       0       0       0       0       0       0

 Cartesian Hessian Update
 Hessian updated using BFGS update


** GEOMETRY OPTIMIZATION IN DELOCALIZED INTERNAL COORDINATES **
   Searching for a Minimum

   Optimization Cycle:   2

                       Coordinates (Angstroms)
     ATOM                X               Y               Z
      1  C         2.1805985903   -0.7005266787   -0.0000157077
      2  C         2.1327965135    0.6979690029   -0.0000106622
      3  C         0.9073865991    1.4042496183   -0.0000091982
      4  C        -0.2562125125    0.6588402207    0.0000655601
      5  C        -0.2329783555   -0.7565268802    0.0000420989
      6  C         0.9975646272   -1.4441276164   -0.0000256636
      7  N        -1.5863799453    1.0728699081   -0.0000097369
      8  C        -1.5971933488   -1.1608860504    0.0000441935
      9  C        -2.3854036957    0.0057079164    0.0000140343
     10  H        -1.9202426968    2.0664575939    0.0006151003
     11  H        -1.9746383884   -2.1791882517   -0.0000791653
     12  H        -3.4644511459    0.1371889020    0.0000015474
     13  H         3.0645993047    1.2571113817   -0.0000255150
     14  H         0.8701816515    2.4896621010   -0.0000223585
     15  H         3.1426905578   -1.2059689104   -0.0000291166
     16  H         1.0247771961   -2.5302797645   -0.0000294291
   Point Group: c1    Number of degrees of freedom:    42


   Energy is   -363.182678194

 Hessian updated using BFGS update

 40 Hessian modes will be used to form the next step
  Hessian Eigenvalues:
     0.018594    0.019738    0.020011    0.020794    0.021683    0.022200
     0.022636    0.023004    0.023236    0.023608    0.023851    0.023984
     0.024127    0.159005    0.160000    0.160000    0.160000    0.161278
     0.218007    0.221524    0.223651    0.243841    0.247699    0.309966
     0.357141    0.357352    0.357892    0.358670    0.364816    0.367435
     0.372422    0.389604    0.426666    0.436397    0.457879    0.467519
     0.475281    0.477644    0.494561    0.549174

 Minimum search - taking simple RFO step
 Searching for Lamda that Minimizes Along All modes
 Value Taken    Lamda =  -0.00352676
 Step Taken.  Stepsize is  0.114396

                             Maximum     Tolerance    Cnvgd?
         Gradient           0.016790      0.000300      NO
         Displacement       0.061004      0.001200      NO
         Energy change     -0.009572      0.000001      NO


 New Cartesian Coordinates Obtained by Inverse Iteration

 Displacement from previous Coordinates is:  0.109608
 ----------------------------------------------------------------
             Standard Nuclear Orientation (Angstroms)
    I     Atom           X                Y                Z
 ----------------------------------------------------------------
    1      C       2.1750956749    -0.7038728817    -0.0000304381
    2      C       2.1265043509     0.6964187130    -0.0000026437
    3      C       0.9034909855     1.4110809467     0.0000424645
    4      C      -0.2475707182     0.6594461448     0.0000963883
    5      C      -0.2308183477    -0.7636887038     0.0000083530
    6      C       0.9983166469    -1.4552324510     0.0000008859
    7      N      -1.5872256480     1.0638069682     0.0000217574
    8      C      -1.5821377313    -1.1754306685    -0.0000565467
    9      C      -2.3703160628     0.0174658021     0.0000719843
   10      H      -1.9442667178     2.0908485784     0.0003732123
   11      H      -1.9687640578    -2.1917604971    -0.0001194536
   12      H      -3.4555503755     0.1557012384     0.0001704737
   13      H       3.0557638735     1.2606619918    -0.0000233684
   14      H       0.8684043052     2.4963890604     0.0000424790
   15      H       3.1372622073    -1.2081903285    -0.0000549723
   16      H       1.0249065662    -2.5410914207    -0.0000145945
 ----------------------------------------------------------------
 Molecular Point Group                 C1    NOp =  1
 Largest Abelian Subgroup              C1    NOp =  1
 Nuclear Repulsion Energy =         400.10407394 hartrees
 There are       31 alpha and       31 beta electrons
 Applying Cartesian multipole field
    Component          Value
    ---------          -----
     (2,0,0)        1.00000E-11
     (0,2,0)        2.00000E-11
     (0,0,2)       -3.00000E-11
 Nucleus-field energy     =     0.0000000118 hartrees
 Requested basis set is 6-31+G(d)
 There are 59 shells and 185 basis functions
 A cutoff of  1.0D-12 yielded   1656 shell pairs
 There are     17099 function pairs
 Smallest overlap matrix eigenvalue = 1.20E-06
 Guess MOs from SCF MO coefficient file

 -----------------------------------------------------------------------
  General SCF calculation program by
  Eric Jon Sundstrom, Paul Horn, Yuezhi Mao, Dmitri Zuev, Alec White,
  David Stuck, Shaama M.S., Shane Yost, Joonho Lee, David Small,
  Daniel Levine, Susi Lehtola, Hugh Burton, Evgeny Epifanovsky,
  Bang C. Huynh
 -----------------------------------------------------------------------
 Exchange:     0.4400 Hartree-Fock + 1.0000 MN15
 Correlation:  1.0000 MN15
 Using SG-3 standard quadrature grid
 using 4 threads for integral computing
 -------------------------------------------------------
 OpenMP Integral computing Module                
 Release: version 1.0, May 2013, Q-Chem Inc. Pittsburgh 
 -------------------------------------------------------
 A restricted SCF calculation will be
 performed using DIIS
 SCF converges when DIIS error is below 1.0e-08
 ---------------------------------------
  Cycle       Energy         DIIS error
 ---------------------------------------
    1    -363.3762383212      4.21e-04  
    2    -363.3773470371      1.62e-04  
    3    -363.3773632464      1.58e-04  
    4    -363.3774597348      3.33e-05  
    5    -363.3774639771      1.38e-05  
    6    -363.3774649492      4.89e-06  
    7    -363.3774650933      1.89e-06  
    8    -363.3774651133      5.62e-07  
    9    -363.3774651152      1.83e-07  
   10    -363.3774651154      6.42e-08  
   11    -363.3774651154      2.73e-08  
   12    -363.3774651154      6.00e-09  Convergence criterion met
 ---------------------------------------
 SCF time:   CPU 210.99s  wall 212.00s 
 SCF   energy in the final basis set =     -363.3774651154
 Total energy in the final basis set =     -363.3774651154
 
 Direct TDDFT/TDA calculation will be performed
 Exchange:     0.4400 Hartree-Fock + 1.0000 MN15
 Correlation:  1.0000 MN15
 Using SG-3 standard quadrature grid
 Singlet excitation energies requested
 CIS energy converged when residual is below 10e- 6
 ---------------------------------------------------
 Iter    Rts Conv    Rts Left    Ttl Dev     Max Dev
 ---------------------------------------------------
   1         0           3      0.003835    0.001825
   2         0           3      0.001153    0.000642
   3         0           3      0.000442    0.000260
   4         0           3      0.000151    0.000086
   5         0           3      0.000054    0.000029
   6         0           3      0.000021    0.000014
   7         1           2      0.000006    0.000004
   8         2           1      0.000003    0.000002
   9         3           0      0.000002    0.000001    Roots Converged
 ---------------------------------------------------
 
 ---------------------------------------------------
         TDDFT/TDA Excitation Energies              
 ---------------------------------------------------

 Excited state   1: excitation energy (eV) =    4.7884
 Total energy for state  1:                  -363.20149477 au
    Multiplicity: Singlet
    Trans. Mom.: -0.9783 X   0.6784 Y   0.0001 Z
    Strength   :     0.1662733660
    D(   30) --> V(    3) amplitude =  0.2359
    D(   31) --> V(    1) amplitude =  0.9121
    D(   31) --> V(    3) amplitude =  0.2219

 Excited state   2: excitation energy (eV) =    5.0764
 Total energy for state  2:                  -363.19091235 au
    Multiplicity: Singlet
    Trans. Mom.: -0.2812 X   0.2467 Y  -0.0000 Z
    Strength   :     0.0174061894
    D(   30) --> V(    1) amplitude =  0.6960
    D(   31) --> V(    3) amplitude = -0.6588

 Excited state   3: excitation energy (eV) =    5.2385
 Total energy for state  3:                  -363.18495504 au
    Multiplicity: Singlet
    Trans. Mom.:  0.0003 X  -0.0001 Y   0.1386 Z
    Strength   :     0.0024651797
    D(   31) --> V(    2) amplitude =  0.9805
 
 ---------------------------------------------------
 Calculating Relaxed Density
 ---------------------------------------------------
 Iter    Rts Conv    Rts Left    Ttl Dev     Max Dev
 ---------------------------------------------------
   1         0           3      0.001338    0.000687
   2         0           3      0.000527    0.000254
   3         0           3      0.000151    0.000065
   4         0           3      0.000040    0.000018
   5         0           3      0.000011    0.000005
   6         3           0      0.000000    0.000000    Roots Converged
 ---------------------------------------------------
  SETman timing summary (seconds)
  CPU time               972.53s
  System time              0.00s
  Wall time              919.74s
 
 --------------------------------------------------------------
 
                    Orbital Energies (a.u.)
 --------------------------------------------------------------
 
 Alpha MOs
 -- Occupied --
-14.1857 -10.1107 -10.1035 -10.0765 -10.0697 -10.0693 -10.0690 -10.0663
-10.0591  -1.0373  -0.8860  -0.8186  -0.7839  -0.7473  -0.6686  -0.6323
 -0.6212  -0.5820  -0.5194  -0.5117  -0.4803  -0.4781  -0.4721  -0.4412
 -0.4257  -0.3908  -0.3817  -0.3746  -0.3140  -0.2649  -0.2244
 -- Virtual --
  0.0062   0.0364   0.0469   0.0624   0.0703   0.0799   0.0840   0.0862
  0.0984   0.1076   0.1101   0.1133   0.1332   0.1360   0.1477   0.1532
  0.1542   0.1731   0.1753   0.1846   0.1931   0.2064   0.2089   0.2123
  0.2132   0.2180   0.2272   0.2362   0.2376   0.2408   0.2429   0.2498
  0.2603   0.2649   0.2760   0.2779   0.2783   0.2861   0.2916   0.3014
  0.3106   0.3136   0.3240   0.3379   0.3422   0.3499   0.3624   0.3839
  0.3990   0.4022   0.4176   0.4334   0.4669   0.4889   0.5543   0.6112
  0.6534   0.6940   0.7047   0.7214   0.7456   0.7475   0.7590   0.7590
  0.7657   0.7803   0.7919   0.7996   0.8181   0.8193   0.8390   0.8811
  0.9108   0.9244   0.9340   0.9650   0.9680   0.9784   0.9908   1.0060
  1.0270   1.0335   1.0615   1.0707   1.1161   1.1306   1.1397   1.1970
  1.2008   1.2207   1.2378   1.2456   1.2633   1.3205   1.3430   1.3460
  1.3788   1.4170   1.4242   1.4570   1.4614   1.4660   1.4871   1.4955
  1.5613   1.5916   1.6512   1.7543   1.8147   1.8619   1.8803   1.8927
  1.9184   1.9487   1.9618   1.9858   2.0319   2.0586   2.1111   2.1258
  2.1258   2.1530   2.1997   2.2153   2.2394   2.2683   2.2868   2.3341
  2.3810   2.4127   2.4869   2.5164   2.5809   2.5936   2.6025   2.6267
  2.6694   2.7472   2.7756   2.7849   2.8816   2.9186   3.0080   3.1462
  3.3301   4.1004   4.1800   4.2151   4.2383   4.2818   4.3168   4.3948
  4.4329   4.6842
 --------------------------------------------------------------
 
          Ground-State Mulliken Net Atomic Charges

     Atom                 Charge (a.u.)
  ----------------------------------------
      1 C                    -0.022852
      2 C                    -0.415576
      3 C                    -0.075894
      4 C                    -0.636286
      5 C                     0.902750
      6 C                    -0.541867
      7 N                    -0.494198
      8 C                     0.177503
      9 C                    -0.322639
     10 H                     0.402013
     11 H                     0.176014
     12 H                     0.186328
     13 H                     0.161141
     14 H                     0.167200
     15 H                     0.164733
     16 H                     0.171629
  ----------------------------------------
  Sum of atomic charges =     0.000000

 -----------------------------------------------------------------
                    Cartesian Multipole Moments
 -----------------------------------------------------------------
    Charge (ESU x 10^10)
                -0.0000
    Dipole Moment (Debye)
         X      -1.6336      Y       1.9358      Z       0.0006
       Tot       2.5330
    Quadrupole Moments (Debye-Ang)
        XX     -45.4875     XY      -4.4886     YY     -44.4384
        XZ      -0.0017     YZ       0.0017     ZZ     -58.9363
    Octopole Moments (Debye-Ang^2)
       XXX     -16.3101    XXY      10.6312    XYY      -9.0590
       YYY      13.2965    XXZ       0.0022    XYZ      -0.0033
       YYZ       0.0013    XZZ      -2.2569    YZZ       2.7414
       ZZZ      -0.0034
    Hexadecapole Moments (Debye-Ang^3)
      XXXX    -819.8359   XXXY     -24.8734   XXYY    -196.1501
      XYYY     -18.6331   YYYY    -373.2855   XXXZ      -0.0072
      XXYZ       0.0050   XYYZ      -0.0037   YYYZ       0.0022
      XXZZ    -189.2082   XYZZ      -2.3591   YYZZ     -94.8589
      XZZZ       0.0052   YZZZ      -0.0061   ZZZZ     -73.4373
 -----------------------------------------------------------------
 Calculating analytic gradient of the CIS energy
 CIS relaxed dipole moment
            1
    1   2.1894325
    2  -2.3663257
    3  -0.0005797
	Magnitude:	 3.224 au	 8.194 Debye
 CIS 3 State Energy is -363.1849550398
 Gradient of the state energy (including CIS Excitation Energy)
            1           2           3           4           5           6
    1   0.0023914   0.0019209  -0.0038719   0.0012421   0.0026462  -0.0033528
    2   0.0028745  -0.0035959   0.0001414  -0.0002611   0.0011147  -0.0011818
    3  -0.0000055   0.0000015  -0.0000029   0.0000146   0.0000008   0.0000081
            7           8           9          10          11          12
    1  -0.0099664  -0.0003781   0.0033985   0.0064242  -0.0002244   0.0000653
    2   0.0131251   0.0026163   0.0019526  -0.0164898  -0.0012221   0.0004398
    3  -0.0000210  -0.0000126   0.0000162   0.0000022  -0.0000003   0.0000002
           13          14          15          16
    1   0.0001379  -0.0003322   0.0000092  -0.0001099
    2   0.0004674   0.0006633  -0.0003753  -0.0002692
    3   0.0000003  -0.0000008  -0.0000006  -0.0000003
 Gradient time:  CPU 71.74 s  wall 51.78 s
 Geometry Optimization Parameters
   NAtoms,    NIC,     NZ,  NCons,   NDum,   NFix, NCnnct, MaxDiis
       16     116       0       0       0       0       0       0

 Cartesian Hessian Update
 Hessian updated using BFGS update


** GEOMETRY OPTIMIZATION IN DELOCALIZED INTERNAL COORDINATES **
   Searching for a Minimum

   Optimization Cycle:   3

                       Coordinates (Angstroms)
     ATOM                X               Y               Z
      1  C         2.1750956749   -0.7038728817   -0.0000304381
      2  C         2.1265043509    0.6964187130   -0.0000026437
      3  C         0.9034909855    1.4110809467    0.0000424645
      4  C        -0.2475707182    0.6594461448    0.0000963883
      5  C        -0.2308183477   -0.7636887038    0.0000083530
      6  C         0.9983166469   -1.4552324510    0.0000008859
      7  N        -1.5872256480    1.0638069682    0.0000217574
      8  C        -1.5821377313   -1.1754306685   -0.0000565467
      9  C        -2.3703160628    0.0174658021    0.0000719843
     10  H        -1.9442667178    2.0908485784    0.0003732123
     11  H        -1.9687640578   -2.1917604971   -0.0001194536
     12  H        -3.4555503755    0.1557012384    0.0001704737
     13  H         3.0557638735    1.2606619918   -0.0000233684
     14  H         0.8684043052    2.4963890604    0.0000424790
     15  H         3.1372622073   -1.2081903285   -0.0000549723
     16  H         1.0249065662   -2.5410914207   -0.0000145945
   Point Group: c1    Number of degrees of freedom:    42


   Energy is   -363.184955040

 Hessian updated using BFGS update

 39 Hessian modes will be used to form the next step
  Hessian Eigenvalues:
     0.018593    0.019738    0.020011    0.020794    0.021683    0.022200
     0.022636    0.023004    0.023236    0.023608    0.023851    0.023984
     0.024127    0.138959    0.160000    0.160658    0.161462    0.169866
     0.220424    0.222378    0.231137    0.246805    0.270108    0.357181
     0.357360    0.357901    0.358659    0.364858    0.365995    0.372556
     0.389886    0.426598    0.438327    0.459482    0.470440    0.476834
     0.490450    0.517052    0.622682

 Minimum search - taking simple RFO step
 Searching for Lamda that Minimizes Along All modes
 Value Taken    Lamda =  -0.00165001
 Step Taken.  Stepsize is  0.098634

                             Maximum     Tolerance    Cnvgd?
         Gradient           0.007082      0.000300      NO
         Displacement       0.044725      0.001200      NO
         Energy change     -0.002277      0.000001      NO


 New Cartesian Coordinates Obtained by Inverse Iteration

 Displacement from previous Coordinates is:  0.095763
 ----------------------------------------------------------------
             Standard Nuclear Orientation (Angstroms)
    I     Atom           X                Y                Z
 ----------------------------------------------------------------
    1      C       2.1726352858    -0.7062882117    -0.0000634884
    2      C       2.1251979609     0.6961901896    -0.0000122615
    3      C       0.9056248050     1.4125671872     0.0000746553
    4      C      -0.2436181437     0.6582883724     0.0001181350
    5      C      -0.2318228729    -0.7703474531     0.0000232430
    6      C       1.0015639157    -1.4604711342    -0.0000770018
    7      N      -1.5869179540     1.0606091346     0.0001706359
    8      C      -1.5766100602    -1.1868682170     0.0000778443
    9      C      -2.3672339112     0.0199703630    -0.0000098767
   10      H      -1.9696496885     2.1286938634     0.0002520374
   11      H      -1.9673072646    -2.2001434448     0.0000599345
   12      H      -3.4559667596     0.1579102144    -0.0000115749
   13      H       3.0551730115     1.2587594066    -0.0000183798
   14      H       0.8740649050     2.4967152960     0.0001383720
   15      H       3.1363324166    -1.2071972511    -0.0000950552
   16      H       1.0316293055    -2.5458358226    -0.0001012379
 ----------------------------------------------------------------
 Molecular Point Group                 C1    NOp =  1
 Largest Abelian Subgroup              C1    NOp =  1
 Nuclear Repulsion Energy =         399.64790696 hartrees
 There are       31 alpha and       31 beta electrons
 Applying Cartesian multipole field
    Component          Value
    ---------          -----
     (2,0,0)        1.00000E-11
     (0,2,0)        2.00000E-11
     (0,0,2)       -3.00000E-11
 Nucleus-field energy     =     0.0000000118 hartrees
 Requested basis set is 6-31+G(d)
 There are 59 shells and 185 basis functions
 A cutoff of  1.0D-12 yielded   1655 shell pairs
 There are     17095 function pairs
 Smallest overlap matrix eigenvalue = 1.21E-06
 Guess MOs from SCF MO coefficient file

 -----------------------------------------------------------------------
  General SCF calculation program by
  Eric Jon Sundstrom, Paul Horn, Yuezhi Mao, Dmitri Zuev, Alec White,
  David Stuck, Shaama M.S., Shane Yost, Joonho Lee, David Small,
  Daniel Levine, Susi Lehtola, Hugh Burton, Evgeny Epifanovsky,
  Bang C. Huynh
 -----------------------------------------------------------------------
 Exchange:     0.4400 Hartree-Fock + 1.0000 MN15
 Correlation:  1.0000 MN15
 Using SG-3 standard quadrature grid
 using 4 threads for integral computing
 -------------------------------------------------------
 OpenMP Integral computing Module                
 Release: version 1.0, May 2013, Q-Chem Inc. Pittsburgh 
 -------------------------------------------------------
 A restricted SCF calculation will be
 performed using DIIS
 SCF converges when DIIS error is below 1.0e-08
 ---------------------------------------
  Cycle       Energy         DIIS error
 ---------------------------------------
    1    -363.3688652161      3.13e-04  
    2    -363.3693012370      1.93e-04  
    3    -363.3693673816      1.37e-04  
    4    -363.3694400603      2.66e-05  
    5    -363.3694427635      1.17e-05  
    6    -363.3694434180      2.84e-06  
    7    -363.3694434636      1.41e-06  
    8    -363.3694434762      3.77e-07  
    9    -363.3694434773      1.61e-07  
   10    -363.3694434775      5.49e-08  
   11    -363.3694434775      2.24e-08  
   12    -363.3694434775      5.40e-09  Convergence criterion met
 ---------------------------------------
 SCF time:   CPU 211.51s  wall 213.00s 
 SCF   energy in the final basis set =     -363.3694434775
 Total energy in the final basis set =     -363.3694434775
 
 Direct TDDFT/TDA calculation will be performed
 Exchange:     0.4400 Hartree-Fock + 1.0000 MN15
 Correlation:  1.0000 MN15
 Using SG-3 standard quadrature grid
 Singlet excitation energies requested
 CIS energy converged when residual is below 10e- 6
 ---------------------------------------------------
 Iter    Rts Conv    Rts Left    Ttl Dev     Max Dev
 ---------------------------------------------------
   1         0           3      0.003654    0.001726
   2         0           3      0.001165    0.000679
   3         0           3      0.000540    0.000355
   4         0           3      0.000213    0.000151
   5         0           3      0.000087    0.000062
   6         0           3      0.000031    0.000024
   7         1           2      0.000008    0.000007
   8         2           1      0.000003    0.000002
   9         3           0      0.000002    0.000001    Roots Converged
 ---------------------------------------------------
 
 ---------------------------------------------------
         TDDFT/TDA Excitation Energies              
 ---------------------------------------------------

 Excited state   1: excitation energy (eV) =    4.7517
 Total energy for state  1:                  -363.19482283 au
    Multiplicity: Singlet
    Trans. Mom.:  1.0161 X  -0.6747 Y   0.0000 Z
    Strength   :     0.1731960759
    D(   30) --> V(    3) amplitude =  0.2333
    D(   31) --> V(    1) amplitude =  0.9124
    D(   31) --> V(    3) amplitude = -0.2246

 Excited state   2: excitation energy (eV) =    4.9769
 Total energy for state  2:                  -363.18654512 au
    Multiplicity: Singlet
    Trans. Mom.:  0.0002 X  -0.0001 Y  -0.1014 Z
    Strength   :     0.0012535741
    D(   31) --> V(    2) amplitude =  0.9818

 Excited state   3: excitation energy (eV) =    5.0669
 Total energy for state  3:                  -363.18323765 au
    Multiplicity: Singlet
    Trans. Mom.:  0.3416 X  -0.2295 Y  -0.0000 Z
    Strength   :     0.0210247532
    D(   30) --> V(    1) amplitude = -0.6867
    D(   31) --> V(    3) amplitude =  0.6681
 
 ---------------------------------------------------
 Calculating Relaxed Density
 ---------------------------------------------------
 Iter    Rts Conv    Rts Left    Ttl Dev     Max Dev
 ---------------------------------------------------
   1         0           3      0.001437    0.000774
   2         0           3      0.000549    0.000273
   3         0           3      0.000164    0.000076
   4         0           3      0.000041    0.000018
   5         0           3      0.000012    0.000006
   6         1           2      0.000002    0.000001
   7         3           0      0.000000    0.000000    Roots Converged
 ---------------------------------------------------
  SETman timing summary (seconds)
  CPU time              1005.78s
  System time              0.00s
  Wall time              992.68s
 
 --------------------------------------------------------------
 
                    Orbital Energies (a.u.)
 --------------------------------------------------------------
 
 Alpha MOs
 -- Occupied --
-14.1904 -10.1118 -10.1040 -10.0764 -10.0701 -10.0686 -10.0685 -10.0658
-10.0594  -1.0364  -0.8855  -0.8168  -0.7835  -0.7452  -0.6675  -0.6283
 -0.6203  -0.5800  -0.5189  -0.5113  -0.4798  -0.4779  -0.4717  -0.4407
 -0.4237  -0.3899  -0.3817  -0.3749  -0.3139  -0.2650  -0.2226
 -- Virtual --
  0.0064   0.0302   0.0471   0.0621   0.0701   0.0795   0.0839   0.0854
  0.0979   0.1077   0.1080   0.1132   0.1330   0.1360   0.1466   0.1528
  0.1537   0.1679   0.1751   0.1847   0.1921   0.2065   0.2087   0.2125
  0.2130   0.2170   0.2270   0.2352   0.2377   0.2410   0.2429   0.2496
  0.2598   0.2647   0.2756   0.2772   0.2783   0.2857   0.2911   0.3009
  0.3106   0.3129   0.3249   0.3367   0.3428   0.3492   0.3627   0.3846
  0.3980   0.4027   0.4165   0.4307   0.4657   0.4888   0.5531   0.6102
  0.6522   0.6941   0.7048   0.7211   0.7438   0.7478   0.7593   0.7593
  0.7676   0.7808   0.7926   0.7996   0.8185   0.8204   0.8406   0.8814
  0.9096   0.9242   0.9326   0.9650   0.9693   0.9791   0.9902   1.0030
  1.0158   1.0285   1.0596   1.0710   1.1153   1.1309   1.1403   1.1973
  1.2000   1.2206   1.2384   1.2443   1.2631   1.3204   1.3452   1.3473
  1.3801   1.4181   1.4238   1.4559   1.4608   1.4675   1.4874   1.4964
  1.5606   1.5881   1.6523   1.7440   1.8102   1.8595   1.8793   1.8898
  1.9164   1.9361   1.9632   1.9873   2.0293   2.0561   2.1084   2.1150
  2.1209   2.1540   2.1964   2.2164   2.2406   2.2685   2.2888   2.3353
  2.3830   2.4134   2.4816   2.5151   2.5810   2.5917   2.6009   2.6252
  2.6691   2.7433   2.7745   2.7860   2.8794   2.9195   2.9952   3.1405
  3.3282   4.0956   4.1806   4.2165   4.2355   4.2791   4.3160   4.3942
  4.4329   4.6821
 --------------------------------------------------------------
 
          Ground-State Mulliken Net Atomic Charges

     Atom                 Charge (a.u.)
  ----------------------------------------
      1 C                    -0.019483
      2 C                    -0.409796
      3 C                    -0.040489
      4 C                    -0.636409
      5 C                     0.859197
      6 C                    -0.560896
      7 N                    -0.470593
      8 C                     0.187391
      9 C                    -0.332052
     10 H                     0.396108
     11 H                     0.176536
     12 H                     0.185959
     13 H                     0.160626
     14 H                     0.168049
     15 H                     0.164155
     16 H                     0.171699
  ----------------------------------------
  Sum of atomic charges =     0.000000

 -----------------------------------------------------------------
                    Cartesian Multipole Moments
 -----------------------------------------------------------------
    Charge (ESU x 10^10)
                -0.0000
    Dipole Moment (Debye)
         X      -1.6857      Y       2.0104      Z       0.0002
       Tot       2.6236
    Quadrupole Moments (Debye-Ang)
        XX     -45.4678     XY      -4.6720     YY     -44.2551
        XZ      -0.0004     YZ       0.0008     ZZ     -59.0252
    Octopole Moments (Debye-Ang^2)
       XXX     -16.7636    XXY      11.2241    XYY      -9.6331
       YYY      14.2167    XXZ      -0.0015    XYZ      -0.0009
       YYZ       0.0002    XZZ      -2.1975    YZZ       2.8556
       ZZZ      -0.0055
    Hexadecapole Moments (Debye-Ang^3)
      XXXX    -820.1664   XXXY     -25.7777   XXYY    -195.1579
      XYYY     -19.7725   YYYY    -373.8488   XXXZ       0.0092
      XXYZ       0.0004   XYYZ       0.0002   YYYZ      -0.0029
      XXZZ    -189.4457   XYZZ      -2.2663   YYZZ     -95.5398
      XZZZ       0.0124   YZZZ      -0.0095   ZZZZ     -73.6870
 -----------------------------------------------------------------
 Calculating analytic gradient of the CIS energy
 CIS relaxed dipole moment
            1
    1  -0.9787685
    2   0.5657912
    3   0.0001172
	Magnitude:	 1.131 au	 2.874 Debye
 CIS 3 State Energy is -363.1832376508
 Gradient of the state energy (including CIS Excitation Energy)
            1           2           3           4           5           6
    1  -0.0182696  -0.0151782  -0.0088181   0.0138137  -0.0072038   0.0232185
    2   0.0069283  -0.0264812  -0.0086109  -0.0251647   0.0228479   0.0102526
    3   0.0000022  -0.0000012  -0.0000013  -0.0000012  -0.0000070  -0.0000042
            7           8           9          10          11          12
    1  -0.0336213   0.0364571   0.0519588  -0.0299550  -0.0004955  -0.0098181
    2  -0.1212913  -0.0225777   0.0899909   0.0708620  -0.0028198   0.0065201
    3  -0.0000044   0.0000162  -0.0000092   0.0000062   0.0000015   0.0000001
           13          14          15          16
    1  -0.0003723  -0.0019839  -0.0005078   0.0007756
    2   0.0005254  -0.0015805   0.0001190   0.0004799
    3   0.0000000   0.0000006   0.0000002   0.0000013
 Gradient time:  CPU 70.26 s  wall 70.61 s
 Geometry Optimization Parameters
   NAtoms,    NIC,     NZ,  NCons,   NDum,   NFix, NCnnct, MaxDiis
       16     116       0       0       0       0       0       0

 Cartesian Hessian Update
 Hessian updated using BFGS update


** GEOMETRY OPTIMIZATION IN DELOCALIZED INTERNAL COORDINATES **
   Searching for a Minimum

   Optimization Cycle:   4

                       Coordinates (Angstroms)
     ATOM                X               Y               Z
      1  C         2.1726352858   -0.7062882117   -0.0000634884
      2  C         2.1251979609    0.6961901896   -0.0000122615
      3  C         0.9056248050    1.4125671872    0.0000746553
      4  C        -0.2436181437    0.6582883724    0.0001181350
      5  C        -0.2318228729   -0.7703474531    0.0000232430
      6  C         1.0015639157   -1.4604711342   -0.0000770018
      7  N        -1.5869179540    1.0606091346    0.0001706359
      8  C        -1.5766100602   -1.1868682170    0.0000778443
      9  C        -2.3672339112    0.0199703630   -0.0000098767
     10  H        -1.9696496885    2.1286938634    0.0002520374
     11  H        -1.9673072646   -2.2001434448    0.0000599345
     12  H        -3.4559667596    0.1579102144   -0.0000115749
     13  H         3.0551730115    1.2587594066   -0.0000183798
     14  H         0.8740649050    2.4967152960    0.0001383720
     15  H         3.1363324166   -1.2071972511   -0.0000950552
     16  H         1.0316293055   -2.5458358226   -0.0001012379
   Point Group: c1    Number of degrees of freedom:    42


   Energy is   -363.183237651

 Hessian updated using BFGS update

 41 Hessian modes will be used to form the next step
  Hessian Eigenvalues:
     0.018593    0.019738    0.020011    0.020794    0.021683    0.022200
     0.022636    0.023004    0.023236    0.023608    0.023851    0.023984
     0.024127    0.153116    0.160000    0.160000    0.160105    0.160835
     0.161573    0.198006    0.221338    0.224846    0.236182    0.247065
     0.318883    0.357180    0.357359    0.357896    0.358679    0.364836
     0.365411    0.374535    0.393622    0.426771    0.454656    0.459346
     0.472526    0.477493    0.503381    0.541286    2.229578

 Minimum search - taking simple RFO step
 Searching for Lamda that Minimizes Along All modes
 Value Taken    Lamda =  -0.00836835
 Step Taken.  Stepsize is  0.062745

                             Maximum     Tolerance    Cnvgd?
         Gradient           0.057340      0.000300      NO
         Displacement       0.027708      0.001200      NO
         Energy change      0.001717      0.000001      NO


 New Cartesian Coordinates Obtained by Inverse Iteration

 Displacement from previous Coordinates is:  0.081885
 ----------------------------------------------------------------
             Standard Nuclear Orientation (Angstroms)
    I     Atom           X                Y                Z
 ----------------------------------------------------------------
    1      C       2.1738334416    -0.7037924089    -0.0000651692
    2      C       2.1337548407     0.7032194099    -0.0000148830
    3      C       0.9131126325     1.4180770346     0.0000718148
    4      C      -0.2428624109     0.6636989764     0.0001220859
    5      C      -0.2371614862    -0.7687101650     0.0000303978
    6      C       0.9964923990    -1.4571351477    -0.0000815424
    7      N      -1.5840130679     1.0637983407     0.0001888651
    8      C      -1.5878178805    -1.1861616679     0.0000929903
    9      C      -2.3782788088     0.0091425384    -0.0000227890
   10      H      -1.9546295802     2.1162320578     0.0002595777
   11      H      -1.9759053384    -2.1992516374     0.0000701003
   12      H      -3.4643542137     0.1394467640    -0.0000401702
   13      H       3.0657325639     1.2621318958    -0.0000209848
   14      H       0.8841675216     2.5025521438     0.0001380164
   15      H       3.1358458702    -1.2081030405    -0.0000962624
   16      H       1.0251784684    -2.5425926013    -0.0001060662
 ----------------------------------------------------------------
 Molecular Point Group                 C1    NOp =  1
 Largest Abelian Subgroup              C1    NOp =  1
 Nuclear Repulsion Energy =         398.90678073 hartrees
 There are       31 alpha and       31 beta electrons
 Applying Cartesian multipole field
    Component          Value
    ---------          -----
     (2,0,0)        1.00000E-11
     (0,2,0)        2.00000E-11
     (0,0,2)       -3.00000E-11
 Nucleus-field energy     =     0.0000000118 hartrees
 Requested basis set is 6-31+G(d)
 There are 59 shells and 185 basis functions
 A cutoff of  1.0D-12 yielded   1655 shell pairs
 There are     17095 function pairs
 Smallest overlap matrix eigenvalue = 1.26E-06
 Guess MOs from SCF MO coefficient file

 -----------------------------------------------------------------------
  General SCF calculation program by
  Eric Jon Sundstrom, Paul Horn, Yuezhi Mao, Dmitri Zuev, Alec White,
  David Stuck, Shaama M.S., Shane Yost, Joonho Lee, David Small,
  Daniel Levine, Susi Lehtola, Hugh Burton, Evgeny Epifanovsky,
  Bang C. Huynh
 -----------------------------------------------------------------------
 Exchange:     0.4400 Hartree-Fock + 1.0000 MN15
 Correlation:  1.0000 MN15
 Using SG-3 standard quadrature grid
 using 4 threads for integral computing
 -------------------------------------------------------
 OpenMP Integral computing Module                
 Release: version 1.0, May 2013, Q-Chem Inc. Pittsburgh 
 -------------------------------------------------------
 A restricted SCF calculation will be
 performed using DIIS
 SCF converges when DIIS error is below 1.0e-08
 ---------------------------------------
  Cycle       Energy         DIIS error
 ---------------------------------------
    1    -363.3756454996      2.50e-04  
    2    -363.3760355711      6.74e-05  
    3    -363.3760435287      6.06e-05  
    4    -363.3760580503      2.34e-05  
    5    -363.3760603100      6.05e-06  
    6    -363.3760605134      2.75e-06  
    7    -363.3760605631      7.00e-07  
    8    -363.3760605660      3.18e-07  
    9    -363.3760605665      1.11e-07  
   10    -363.3760605666      2.81e-08  
   11    -363.3760605666      1.01e-08  
   12    -363.3760605666      4.43e-09  Convergence criterion met
 ---------------------------------------
 SCF time:   CPU 212.11s  wall 213.00s 
 SCF   energy in the final basis set =     -363.3760605666
 Total energy in the final basis set =     -363.3760605666
 
 Direct TDDFT/TDA calculation will be performed
 Exchange:     0.4400 Hartree-Fock + 1.0000 MN15
 Correlation:  1.0000 MN15
 Using SG-3 standard quadrature grid
 Singlet excitation energies requested
 CIS energy converged when residual is below 10e- 6
 ---------------------------------------------------
 Iter    Rts Conv    Rts Left    Ttl Dev     Max Dev
 ---------------------------------------------------
   1         0           3      0.003849    0.001832
   2         0           3      0.001153    0.000624
   3         0           3      0.000446    0.000258
   4         0           3      0.000151    0.000085
   5         0           3      0.000054    0.000028
   6         0           3      0.000022    0.000014
   7         1           2      0.000006    0.000004
   8         2           1      0.000003    0.000002
   9         3           0      0.000001    0.000001    Roots Converged
 ---------------------------------------------------
 
 ---------------------------------------------------
         TDDFT/TDA Excitation Energies              
 ---------------------------------------------------

 Excited state   1: excitation energy (eV) =    4.8084
 Total energy for state  1:                  -363.19935377 au
    Multiplicity: Singlet
    Trans. Mom.:  0.9860 X  -0.6636 Y   0.0000 Z
    Strength   :     0.1663945727
    D(   30) --> V(    3) amplitude =  0.2458
    D(   31) --> V(    1) amplitude =  0.9073
    D(   31) --> V(    3) amplitude = -0.2276

 Excited state   2: excitation energy (eV) =    5.0391
 Total energy for state  2:                  -363.19087694 au
    Multiplicity: Singlet
    Trans. Mom.: -0.2230 X   0.2783 Y   0.0000 Z
    Strength   :     0.0156997078
    D(   30) --> V(    1) amplitude =  0.7110
    D(   31) --> V(    3) amplitude = -0.6398

 Excited state   3: excitation energy (eV) =    5.1818
 Total energy for state  3:                  -363.18563204 au
    Multiplicity: Singlet
    Trans. Mom.:  0.0002 X  -0.0001 Y  -0.1198 Z
    Strength   :     0.0018207004
    D(   31) --> V(    2) amplitude =  0.9806
 
 ---------------------------------------------------
 Calculating Relaxed Density
 ---------------------------------------------------
 Iter    Rts Conv    Rts Left    Ttl Dev     Max Dev
 ---------------------------------------------------
   1         0           3      0.001389    0.000746
   2         0           3      0.000540    0.000270
   3         0           3      0.000157    0.000071
   4         0           3      0.000042    0.000019
   5         0           3      0.000012    0.000005
   6         2           1      0.000001    0.000001
   7         3           0      0.000000    0.000000    Roots Converged
 ---------------------------------------------------
  SETman timing summary (seconds)
  CPU time               989.48s
  System time              0.00s
  Wall time              976.27s
 
 --------------------------------------------------------------
 
                    Orbital Energies (a.u.)
 --------------------------------------------------------------
 
 Alpha MOs
 -- Occupied --
-14.1881 -10.1121 -10.1054 -10.0771 -10.0711 -10.0701 -10.0698 -10.0668
-10.0607  -1.0318  -0.8835  -0.8174  -0.7810  -0.7474  -0.6667  -0.6291
 -0.6205  -0.5795  -0.5199  -0.5113  -0.4787  -0.4751  -0.4708  -0.4420
 -0.4262  -0.3906  -0.3799  -0.3747  -0.3145  -0.2627  -0.2256
 -- Virtual --
  0.0055   0.0340   0.0458   0.0623   0.0700   0.0788   0.0839   0.0855
  0.0983   0.1078   0.1088   0.1131   0.1329   0.1360   0.1472   0.1527
  0.1539   0.1702   0.1750   0.1844   0.1927   0.2063   0.2087   0.2122
  0.2126   0.2172   0.2269   0.2355   0.2369   0.2405   0.2424   0.2491
  0.2599   0.2645   0.2752   0.2779   0.2783   0.2854   0.2916   0.3006
  0.3105   0.3133   0.3234   0.3370   0.3415   0.3483   0.3611   0.3818
  0.3988   0.4002   0.4147   0.4305   0.4635   0.4876   0.5501   0.6078
  0.6490   0.6939   0.7046   0.7219   0.7438   0.7475   0.7570   0.7594
  0.7643   0.7799   0.7884   0.7995   0.8178   0.8180   0.8386   0.8806
  0.9102   0.9247   0.9333   0.9644   0.9689   0.9780   0.9910   1.0045
  1.0231   1.0272   1.0595   1.0710   1.1154   1.1300   1.1383   1.1960
  1.1978   1.2194   1.2384   1.2438   1.2628   1.3219   1.3409   1.3456
  1.3783   1.4157   1.4237   1.4536   1.4595   1.4668   1.4865   1.4944
  1.5575   1.5881   1.6500   1.7508   1.8100   1.8598   1.8779   1.8887
  1.9143   1.9383   1.9600   1.9846   2.0263   2.0509   2.1061   2.1147
  2.1223   2.1428   2.1973   2.2121   2.2346   2.2594   2.2759   2.3297
  2.3753   2.4086   2.4815   2.5084   2.5787   2.5913   2.5949   2.6208
  2.6636   2.7393   2.7691   2.7815   2.8803   2.9125   2.9934   3.1371
  3.3192   4.0916   4.1777   4.2156   4.2366   4.2773   4.3148   4.3921
  4.4314   4.6787
 --------------------------------------------------------------
 
          Ground-State Mulliken Net Atomic Charges

     Atom                 Charge (a.u.)
  ----------------------------------------
      1 C                    -0.017106
      2 C                    -0.408006
      3 C                    -0.035934
      4 C                    -0.633664
      5 C                     0.844660
      6 C                    -0.573722
      7 N                    -0.491052
      8 C                     0.218055
      9 C                    -0.331625
     10 H                     0.397826
     11 H                     0.177335
     12 H                     0.187266
     13 H                     0.161986
     14 H                     0.168204
     15 H                     0.164116
     16 H                     0.171659
  ----------------------------------------
  Sum of atomic charges =     0.000000

 -----------------------------------------------------------------
                    Cartesian Multipole Moments
 -----------------------------------------------------------------
    Charge (ESU x 10^10)
                -0.0000
    Dipole Moment (Debye)
         X      -1.6470      Y       1.9140      Z       0.0001
       Tot       2.5251
    Quadrupole Moments (Debye-Ang)
        XX     -45.4059     XY      -4.3345     YY     -44.3168
        XZ      -0.0002     YZ       0.0008     ZZ     -59.0613
    Octopole Moments (Debye-Ang^2)
       XXX     -16.5697    XXY      10.6447    XYY      -9.2997
       YYY      13.5460    XXZ      -0.0020    XYZ      -0.0009
       YYZ       0.0001    XZZ      -2.1788    YZZ       2.6860
       ZZZ      -0.0058
    Hexadecapole Moments (Debye-Ang^3)
      XXXX    -822.0655   XXXY     -25.0308   XXYY    -196.4415
      XYYY     -20.1811   YYYY    -374.7981   XXXZ       0.0113
      XXYZ       0.0002   XYYZ       0.0004   YYYZ      -0.0029
      XXZZ    -190.3037   XYZZ      -2.7186   YYZZ     -95.5789
      XZZZ       0.0131   YZZZ      -0.0095   ZZZZ     -73.7344
 -----------------------------------------------------------------
 Calculating analytic gradient of the CIS energy
 CIS relaxed dipole moment
            1
    1   2.1029255
    2  -2.4284641
    3  -0.0002060
	Magnitude:	 3.212 au	 8.165 Debye
 CIS 3 State Energy is -363.1856320414
 Gradient of the state energy (including CIS Excitation Energy)
            1           2           3           4           5           6
    1   0.0025579   0.0030342   0.0001266   0.0050208  -0.0025256  -0.0030533
    2  -0.0005133   0.0029413   0.0030427   0.0052529  -0.0022966  -0.0030277
    3   0.0000043  -0.0000027  -0.0000045   0.0000020  -0.0000066  -0.0000117
            7           8           9          10          11          12
    1   0.0002043  -0.0016767  -0.0091817   0.0064547  -0.0003177  -0.0007864
    2   0.0222961  -0.0040917  -0.0080623  -0.0159519   0.0006553  -0.0009538
    3   0.0000236   0.0000257  -0.0000361  -0.0000013  -0.0000003   0.0000020
           13          14          15          16
    1  -0.0000320   0.0006221   0.0000164  -0.0004633
    2   0.0004608   0.0002100  -0.0000798   0.0001179
    3   0.0000003   0.0000015   0.0000017   0.0000023
 Gradient time:  CPU 70.53 s  wall 70.88 s
 Geometry Optimization Parameters
   NAtoms,    NIC,     NZ,  NCons,   NDum,   NFix, NCnnct, MaxDiis
       16     116       0       0       0       0       0       0

 Cartesian Hessian Update
 Hessian updated using BFGS update


** GEOMETRY OPTIMIZATION IN DELOCALIZED INTERNAL COORDINATES **
   Searching for a Minimum

   Optimization Cycle:   5

                       Coordinates (Angstroms)
     ATOM                X               Y               Z
      1  C         2.1738334416   -0.7037924089   -0.0000651692
      2  C         2.1337548407    0.7032194099   -0.0000148830
      3  C         0.9131126325    1.4180770346    0.0000718148
      4  C        -0.2428624109    0.6636989764    0.0001220859
      5  C        -0.2371614862   -0.7687101650    0.0000303978
      6  C         0.9964923990   -1.4571351477   -0.0000815424
      7  N        -1.5840130679    1.0637983407    0.0001888651
      8  C        -1.5878178805   -1.1861616679    0.0000929903
      9  C        -2.3782788088    0.0091425384   -0.0000227890
     10  H        -1.9546295802    2.1162320578    0.0002595777
     11  H        -1.9759053384   -2.1992516374    0.0000701003
     12  H        -3.4643542137    0.1394467640   -0.0000401702
     13  H         3.0657325639    1.2621318958   -0.0000209848
     14  H         0.8841675216    2.5025521438    0.0001380164
     15  H         3.1358458702   -1.2081030405   -0.0000962624
     16  H         1.0251784684   -2.5425926013   -0.0001060662
   Point Group: c1    Number of degrees of freedom:    42


   Energy is   -363.185632041

 Hessian updated using BFGS update

 42 Hessian modes will be used to form the next step
  Hessian Eigenvalues:
     0.018593    0.019738    0.020011    0.020794    0.021683    0.022200
     0.022636    0.023004    0.023236    0.023608    0.023851    0.023984
     0.024127    0.153150    0.159998    0.160000    0.160000    0.160099
     0.160757    0.161624    0.197926    0.221250    0.224843    0.235613
     0.246921    0.319843    0.357180    0.357359    0.357894    0.358680
     0.364540    0.365240    0.374554    0.393573    0.426724    0.454614
     0.459382    0.472610    0.477715    0.502319    0.536828    2.636465

 Minimum search - taking simple RFO step
 Searching for Lamda that Minimizes Along All modes
 Value Taken    Lamda =  -0.00037297
 Step Taken.  Stepsize is  0.022711

                             Maximum     Tolerance    Cnvgd?
         Gradient           0.010724      0.000300      NO
         Displacement       0.009891      0.001200      NO
         Energy change     -0.002394      0.000001      NO


 New Cartesian Coordinates Obtained by Inverse Iteration

 Displacement from previous Coordinates is:  0.028552
 ----------------------------------------------------------------
             Standard Nuclear Orientation (Angstroms)
    I     Atom           X                Y                Z
 ----------------------------------------------------------------
    1      C       2.1746509787    -0.7044277545    -0.0000216785
    2      C       2.1316862485     0.7022080845     0.0000259211
    3      C       0.9099473706     1.4141872017     0.0000646094
    4      C      -0.2465125754     0.6610598645     0.0000643324
    5      C      -0.2355927758    -0.7700864302     0.0000039275
    6      C       0.9978548927    -1.4575907507    -0.0000092555
    7      N      -1.5836557249     1.0643240928     0.0000714732
    8      C      -1.5874933205    -1.1821300179    -0.0000855780
[...]
   13      H       3.0621388340     1.2557694736    -0.0056275482
   14      H       0.8983099363     2.5021480488     0.0019471074
   15      H       3.1449894676    -1.2161775087     0.0015338276
   16      H       1.0384593850    -2.5556773401    -0.0048845106
 ----------------------------------------------------------------
 Molecular Point Group                 C1    NOp =  1
 Largest Abelian Subgroup              C1    NOp =  1
 Nuclear Repulsion Energy =         398.11855190 hartrees
 There are       31 alpha and       31 beta electrons
 Applying Cartesian multipole field
    Component          Value
    ---------          -----
     (2,0,0)        1.00000E-11
     (0,2,0)        2.00000E-11
     (0,0,2)       -3.00000E-11
 Nucleus-field energy     =     0.0000000119 hartrees
 Requested basis set is 6-31+G(d)
 There are 59 shells and 185 basis functions
 A cutoff of  1.0D-12 yielded   1655 shell pairs
 There are     17095 function pairs
 Smallest overlap matrix eigenvalue = 1.27E-06
 Guess MOs from SCF MO coefficient file

 -----------------------------------------------------------------------
  General SCF calculation program by
  Eric Jon Sundstrom, Paul Horn, Yuezhi Mao, Dmitri Zuev, Alec White,
  David Stuck, Shaama M.S., Shane Yost, Joonho Lee, David Small,
  Daniel Levine, Susi Lehtola, Hugh Burton, Evgeny Epifanovsky,
  Bang C. Huynh
 -----------------------------------------------------------------------
 Exchange:     0.4400 Hartree-Fock + 1.0000 MN15
 Correlation:  1.0000 MN15
 Using SG-3 standard quadrature grid
 using 4 threads for integral computing
 -------------------------------------------------------
 OpenMP Integral computing Module                
 Release: version 1.0, May 2013, Q-Chem Inc. Pittsburgh 
 -------------------------------------------------------
 A restricted SCF calculation will be
 performed using DIIS
 SCF converges when DIIS error is below 1.0e-08
 ---------------------------------------
  Cycle       Energy         DIIS error
 ---------------------------------------
    1    -363.3599631344      5.56e-04  
    2    -363.3620480057      1.91e-04  
    3    -363.3620720936      2.01e-04  
    4    -363.3622328423      4.60e-05  
    5    -363.3622427525      1.82e-05  
    6    -363.3622447728      6.86e-06  
    7    -363.3622452048      1.77e-06  
    8    -363.3622452275      9.14e-07  
    9    -363.3622452324      2.53e-07  
   10    -363.3622452328      1.05e-07  
   11    -363.3622452329      2.70e-08  
   12    -363.3622452329      1.29e-08  
   13    -363.3622452329      4.71e-09  Convergence criterion met
 ---------------------------------------
 SCF time:   CPU 233.91s  wall 59.00s 
 SCF   energy in the final basis set =     -363.3622452329
 Total energy in the final basis set =     -363.3622452329
 
 Direct TDDFT/TDA calculation will be performed
 Exchange:     0.4400 Hartree-Fock + 1.0000 MN15
 Correlation:  1.0000 MN15
 Using SG-3 standard quadrature grid
 Singlet excitation energies requested
 CIS energy converged when residual is below 10e- 6
 ---------------------------------------------------
 Iter    Rts Conv    Rts Left    Ttl Dev     Max Dev
 ---------------------------------------------------
   1         0           3      0.003692    0.001717
   2         0           3      0.001181    0.000674
   3         0           3      0.000565    0.000342
   4         0           3      0.000213    0.000137
   5         0           3      0.000069    0.000043
   6         0           3      0.000025    0.000017
   7         0           3      0.000008    0.000005
   8         2           1      0.000003    0.000002
   9         3           0      0.000002    0.000001    Roots Converged
 ---------------------------------------------------
 
 ---------------------------------------------------
         TDDFT/TDA Excitation Energies              
 ---------------------------------------------------

 Excited state   1: excitation energy (eV) =    4.7335
 Total energy for state  1:                  -363.18829145 au
    Multiplicity: Singlet
    Trans. Mom.:  1.0601 X  -0.6139 Y   0.0144 Z
    Strength   :     0.1740643254
    D(   30) --> V(    3) amplitude =  0.2343
    D(   31) --> V(    1) amplitude =  0.8754
    D(   31) --> V(    3) amplitude = -0.2643

 Excited state   2: excitation energy (eV) =    4.7428
 Total energy for state  2:                  -363.18795113 au
    Multiplicity: Singlet
    Trans. Mom.:  0.2412 X  -0.1340 Y  -0.0741 Z
    Strength   :     0.0094870300
    D(   31) --> V(    2) amplitude =  0.9599

 Excited state   3: excitation energy (eV) =    5.0373
 Total energy for state  3:                  -363.17712617 au
    Multiplicity: Singlet
    Trans. Mom.:  0.4786 X  -0.2470 Y   0.0018 Z
    Strength   :     0.0358042184
    D(   30) --> V(    1) amplitude = -0.6722
    D(   31) --> V(    1) amplitude =  0.2557
    D(   31) --> V(    3) amplitude =  0.6618
 
 ---------------------------------------------------
 Calculating Relaxed Density
 ---------------------------------------------------
 Iter    Rts Conv    Rts Left    Ttl Dev     Max Dev
 ---------------------------------------------------
   1         0           3      0.001490    0.000819
   2         0           3      0.000555    0.000275
   3         0           3      0.000172    0.000082
   4         0           3      0.000041    0.000017
   5         0           3      0.000013    0.000006
   6         1           2      0.000002    0.000001
   7         3           0      0.000000    0.000000    Roots Converged
 ---------------------------------------------------
  SETman timing summary (seconds)
  CPU time              1027.54s
  System time              0.00s
  Wall time              257.93s
 
 --------------------------------------------------------------
 
                    Orbital Energies (a.u.)
 --------------------------------------------------------------
 
 Alpha MOs
 -- Occupied --
-14.1944 -10.1112 -10.1068 -10.0775 -10.0720 -10.0700 -10.0695 -10.0670
-10.0588  -1.0320  -0.8819  -0.8155  -0.7821  -0.7430  -0.6647  -0.6246
 -0.6192  -0.5775  -0.5199  -0.5103  -0.4787  -0.4752  -0.4708  -0.4386
 -0.4230  -0.3909  -0.3795  -0.3740  -0.3139  -0.2646  -0.2217
 -- Virtual --
  0.0060   0.0238   0.0454   0.0620   0.0699   0.0801   0.0839   0.0845
  0.0977   0.1060   0.1078   0.1130   0.1328   0.1361   0.1452   0.1525
  0.1531   0.1648   0.1744   0.1847   0.1914   0.2067   0.2082   0.2122
  0.2127   0.2159   0.2269   0.2337   0.2368   0.2407   0.2428   0.2488
  0.2599   0.2639   0.2751   0.2764   0.2784   0.2845   0.2909   0.3008
  0.3111   0.3121   0.3244   0.3354   0.3419   0.3469   0.3622   0.3831
  0.3955   0.4025   0.4128   0.4250   0.4651   0.4864   0.5512   0.6033
  0.6450   0.6948   0.7064   0.7208   0.7425   0.7477   0.7580   0.7599
  0.7684   0.7811   0.7907   0.7993   0.8185   0.8188   0.8395   0.8805
  0.9105   0.9244   0.9309   0.9645   0.9712   0.9783   0.9901   0.9932
  1.0124   1.0288   1.0606   1.0720   1.1141   1.1290   1.1399   1.1929
  1.1973   1.2191   1.2382   1.2403   1.2624   1.3220   1.3461   1.3488
  1.3788   1.4188   1.4219   1.4533   1.4603   1.4668   1.4872   1.4965
  1.5541   1.5816   1.6544   1.7336   1.8001   1.8506   1.8745   1.8878
  1.9083   1.9258   1.9612   1.9854   2.0237   2.0507   2.0963   2.1093
  2.1155   2.1449   2.1902   2.2178   2.2349   2.2626   2.2833   2.3321
  2.3798   2.4107   2.4760   2.5084   2.5796   2.5855   2.5876   2.6225
  2.6615   2.7366   2.7656   2.7821   2.8769   2.9126   2.9813   3.1302
  3.3091   4.0905   4.1755   4.2156   4.2320   4.2751   4.3171   4.3910
  4.4301   4.6754
 --------------------------------------------------------------
 
          Ground-State Mulliken Net Atomic Charges

     Atom                 Charge (a.u.)
  ----------------------------------------
      1 C                    -0.019050
      2 C                    -0.401067
      3 C                    -0.038883
      4 C                    -0.616491
      5 C                     0.796185
      6 C                    -0.548738
      7 N                    -0.453556
      8 C                     0.207868
      9 C                    -0.345288
     10 H                     0.390816
     11 H                     0.176025
     12 H                     0.185254
     13 H                     0.160292
     14 H                     0.169599
     15 H                     0.164866
     16 H                     0.172168
  ----------------------------------------
  Sum of atomic charges =     0.000000

 -----------------------------------------------------------------
                    Cartesian Multipole Moments
 -----------------------------------------------------------------
    Charge (ESU x 10^10)
                 0.0000
    Dipole Moment (Debye)
         X      -1.7610      Y       2.0073      Z      -0.0294
       Tot       2.6705
    Quadrupole Moments (Debye-Ang)
        XX     -45.1932     XY      -4.8567     YY     -44.0877
        XZ       0.0255     YZ      -0.0410     ZZ     -59.1726
    Octopole Moments (Debye-Ang^2)
       XXX     -17.6590    XXY      11.7984    XYY     -10.3708
       YYY      14.6148    XXZ      -0.2352    XYZ       0.0883
       YYZ      -0.2913    XZZ      -2.3313    YZZ       2.6827
       ZZZ      -0.3264
    Hexadecapole Moments (Debye-Ang^3)
      XXXX    -822.9017   XXXY     -26.2912   XXYY    -193.9999
      XYYY     -20.0956   YYYY    -376.0983   XXXZ       0.0844
      XXYZ      -0.3151   XYYZ       0.2589   YYYZ      -0.2618
      XXZZ    -190.7636   XYZZ      -1.4429   YYZZ     -96.5261
      XZZZ       0.0726   YZZZ      -0.1595   ZZZZ     -74.0545
 -----------------------------------------------------------------
 Calculating analytic gradient of the CIS energy
 CIS relaxed dipole moment
            1
    1  -1.0231762
    2   0.5455481
    3  -0.0089460
	Magnitude:	 1.160 au	 2.947 Debye
 CIS 3 State Energy is -363.1771261714
 Gradient of the state energy (including CIS Excitation Energy)
            1           2           3           4           5           6
    1  -0.0189924  -0.0150033  -0.0033796   0.0069227  -0.0234112   0.0343489
    2  -0.0085701  -0.0131692  -0.0018488  -0.0258459   0.0136929   0.0057862
    3   0.0001760  -0.0000693   0.0000543   0.0005205   0.0000585  -0.0001348
            7           8           9          10          11          12
    1  -0.0234741   0.0436905   0.0469586  -0.0403148   0.0002601  -0.0071648
    2  -0.1192819  -0.0201327   0.0852471   0.0814938  -0.0016443   0.0050603
    3   0.0010262  -0.0005438   0.0006414  -0.0016102  -0.0000171   0.0000770
           13          14          15          16
    1  -0.0003669  -0.0005473  -0.0006100   0.0010836
    2   0.0004908  -0.0019757   0.0003276   0.0003699
    3  -0.0000943  -0.0000083   0.0000152  -0.0000914
 Gradient time:  CPU 70.91 s  wall 17.80 s
 Geometry Optimization Parameters
   NAtoms,    NIC,     NZ,  NCons,   NDum,   NFix, NCnnct, MaxDiis
       16     116       0       0       0       0       0       0

 Cartesian Hessian Update
 Hessian updated using BFGS update


** GEOMETRY OPTIMIZATION IN DELOCALIZED INTERNAL COORDINATES **
   Searching for a Minimum

   Optimization Cycle:  43

                       Coordinates (Angstroms)
     ATOM                X               Y               Z
      1  C         2.1793174836   -0.7199597822    0.0021662268
      2  C         2.1301271957    0.6968017762   -0.0004075540
      3  C         0.9110943036    1.4184315464    0.0028894061
      4  C        -0.2485346685    0.6666524823    0.0070038589
      5  C        -0.2355784620   -0.7738001274    0.0033937387
      6  C         1.0116647184   -1.4699542948    0.0007876004
      7  N        -1.5990469813    1.0740318254    0.0034254559
      8  C        -1.5696214476   -1.1842283824   -0.0017363203
      9  C        -2.3683354610    0.0184748660    0.0032701293
     10  H        -2.0373259017    2.1625263636   -0.0118681956
     11  H        -1.9592195741   -2.1962484434   -0.0042513831
     12  H        -3.4553438766    0.1337619892    0.0028841421
     13  H         3.0621388340    1.2557694736   -0.0056275482
     14  H         0.8983099363    2.5021480488    0.0019471074
     15  H         3.1449894676   -1.2161775087    0.0015338276
     16  H         1.0384593850   -2.5556773401   -0.0048845106
   Point Group: c1    Number of degrees of freedom:    42


   Energy is   -363.177126171

 Hessian updated using BFGS update

 42 Hessian modes will be used to form the next step
  Hessian Eigenvalues:
     0.019301    0.020074    0.020624    0.021389    0.022015    0.022572
     0.022990    0.023398    0.023610    0.023981    0.023998    0.024119
     0.036051    0.148848    0.159676    0.159943    0.160394    0.160672
     0.161414    0.163632    0.218744    0.238991    0.244344    0.254725
     0.311091    0.357338    0.357490    0.358043    0.358846    0.366345
     0.381813    0.403539    0.413083    0.429523    0.479169    0.510730
     0.606772    0.641684    0.738156    0.863173    1.245916    4.598039

 Minimum search - taking simple RFO step
 Searching for Lamda that Minimizes Along All modes
 Value Taken    Lamda =  -0.01204766
 Step Taken.  Stepsize is  0.123844

                             Maximum     Tolerance    Cnvgd?
         Gradient           0.066334      0.000300      NO
         Displacement       0.049706      0.001200      NO
         Energy change      0.009060      0.000001      NO


 New Cartesian Coordinates Obtained by Inverse Iteration

 Displacement from previous Coordinates is:  0.178068
 ----------------------------------------------------------------
             Standard Nuclear Orientation (Angstroms)
    I     Atom           X                Y                Z
 ----------------------------------------------------------------
    1      C       2.1795383461    -0.7019465032     0.0010488577
    2      C       2.1352177694     0.7018927700    -0.0005150517
    3      C       0.9079952231     1.4123709013     0.0009381715
    4      C      -0.2475789541     0.6585979065     0.0029469913
    5      C      -0.2337688039    -0.7724524118     0.0014636741
    6      C       0.9989412009    -1.4575510498     0.0004396637
    7      N      -1.5852503826     1.0626331721     0.0021920760
    8      C      -1.5908123566    -1.1828849947    -0.0008581768
    9      C      -2.3762556265     0.0049298078     0.0009812657
   10      H      -1.9645179576     2.1421859240    -0.0041428628
   11      H      -1.9766730027    -2.1972542365    -0.0019743610
   12      H      -3.4592577468     0.1317066549     0.0007666250
   13      H       3.0655683611     1.2631031792    -0.0026521849
   14      H       0.8757116129     2.4971177668     0.0007777395
   15      H       3.1413083833    -1.2065902961     0.0009600001
   16      H       1.0329288852    -2.5433060979    -0.0018464462
 ----------------------------------------------------------------
 Molecular Point Group                 C1    NOp =  1
 Largest Abelian Subgroup              C1    NOp =  1
 Nuclear Repulsion Energy =         398.88603397 hartrees
 There are       31 alpha and       31 beta electrons
 Applying Cartesian multipole field
    Component          Value
    ---------          -----
     (2,0,0)        1.00000E-11
     (0,2,0)        2.00000E-11
     (0,0,2)       -3.00000E-11
 Nucleus-field energy     =     0.0000000118 hartrees
 Requested basis set is 6-31+G(d)
 There are 59 shells and 185 basis functions
 A cutoff of  1.0D-12 yielded   1655 shell pairs
 There are     17095 function pairs
 Smallest overlap matrix eigenvalue = 1.23E-06
 Guess MOs from SCF MO coefficient file

 -----------------------------------------------------------------------
  General SCF calculation program by
  Eric Jon Sundstrom, Paul Horn, Yuezhi Mao, Dmitri Zuev, Alec White,
  David Stuck, Shaama M.S., Shane Yost, Joonho Lee, David Small,
  Daniel Levine, Susi Lehtola, Hugh Burton, Evgeny Epifanovsky,
  Bang C. Huynh
 -----------------------------------------------------------------------
 Exchange:     0.4400 Hartree-Fock + 1.0000 MN15
 Correlation:  1.0000 MN15
 Using SG-3 standard quadrature grid
 using 4 threads for integral computing
 -------------------------------------------------------
 OpenMP Integral computing Module                
 Release: version 1.0, May 2013, Q-Chem Inc. Pittsburgh 
 -------------------------------------------------------
 A restricted SCF calculation will be
 performed using DIIS
 SCF converges when DIIS error is below 1.0e-08
 ---------------------------------------
  Cycle       Energy         DIIS error
 ---------------------------------------
    1    -363.3710847369      4.54e-04  
    2    -363.3724840651      1.58e-04  
    3    -363.3725036385      1.63e-04  
    4    -363.3726100275      3.76e-05  
    5    -363.3726166462      1.45e-05  
    6    -363.3726179336      5.68e-06  
    7    -363.3726182192      1.52e-06  
    8    -363.3726182356      7.65e-07  
    9    -363.3726182391      2.08e-07  
   10    -363.3726182393      8.53e-08  
   11    -363.3726182394      2.32e-08  
   12    -363.3726182394      1.08e-08  
   13    -363.3726182394      3.95e-09  Convergence criterion met
 ---------------------------------------
 SCF time:   CPU 234.25s  wall 59.00s 
 SCF   energy in the final basis set =     -363.3726182394
 Total energy in the final basis set =     -363.3726182394
 
 Direct TDDFT/TDA calculation will be performed
 Exchange:     0.4400 Hartree-Fock + 1.0000 MN15
 Correlation:  1.0000 MN15
 Using SG-3 standard quadrature grid
 Singlet excitation energies requested
 CIS energy converged when residual is below 10e- 6
 ---------------------------------------------------
 Iter    Rts Conv    Rts Left    Ttl Dev     Max Dev
 ---------------------------------------------------
   1         0           3      0.003864    0.001830
   2         0           3      0.001168    0.000622
   3         0           3      0.000477    0.000250
   4         0           3      0.000162    0.000079
   5         0           3      0.000051    0.000022
   6         0           3      0.000019    0.000009
   7         0           3      0.000006    0.000003
   8         3           0      0.000002    0.000001    Roots Converged
 ---------------------------------------------------
 
 ---------------------------------------------------
         TDDFT/TDA Excitation Energies              
 ---------------------------------------------------

 Excited state   1: excitation energy (eV) =    4.8195
 Total energy for state  1:                  -363.19550388 au
    Multiplicity: Singlet
    Trans. Mom.:  0.9498 X  -0.6759 Y   0.0002 Z
    Strength   :     0.1604562212
    D(   30) --> V(    3) amplitude =  0.2474
    D(   31) --> V(    1) amplitude =  0.9085
    D(   31) --> V(    3) amplitude = -0.2216

 Excited state   2: excitation energy (eV) =    5.0414
 Total energy for state  2:                  -363.18735028 au
    Multiplicity: Singlet
    Trans. Mom.: -0.1960 X   0.2786 Y   0.0110 Z
    Strength   :     0.0143465595
    D(   30) --> V(    1) amplitude =  0.7071
    D(   31) --> V(    3) amplitude = -0.6354

 Excited state   3: excitation energy (eV) =    5.0600
 Total energy for state  3:                  -363.18666712 au
    Multiplicity: Singlet
    Trans. Mom.: -0.0137 X   0.0293 Y  -0.0946 Z
    Strength   :     0.0012391746
    D(   31) --> V(    2) amplitude =  0.9725
 
 ---------------------------------------------------
 Calculating Relaxed Density
 ---------------------------------------------------
 Iter    Rts Conv    Rts Left    Ttl Dev     Max Dev
 ---------------------------------------------------
   1         0           3      0.001432    0.000795
   2         0           3      0.000547    0.000280
   3         0           3      0.000159    0.000075
   4         0           3      0.000041    0.000019
   5         0           3      0.000012    0.000006
