
Running Job 1 of 1 QfuncsWB97X-VI-1st.in
qchem QfuncsWB97X-VI-1st.in_97886.0 /scratch/scaparas/job_3585689/qchem97886/ 0
/cm/shared/apps/spack/cpu/opt/spack/linux-centos8-zen2/gcc-10.2.0/qchem-5.3-5qddma6gy34jvefiv7mbcb7qm253n45r/exe/qcprog.exe_s QfuncsWB97X-VI-1st.in_97886.0 /scratch/scaparas/job_3585689/qchem97886/
                  Welcome to Q-Chem
     A Quantum Leap Into The Future Of Chemistry


 Q-Chem 5.3, Q-Chem, Inc., Pleasanton, CA (2020)

 License issued to: University of California, San Diego (site)

 Yihan Shao,  Zhengting Gan,  E. Epifanovsky,  A. T. B. Gilbert,  M. Wormit,  
 J. Kussmann,  A. W. Lange,  A. Behn,  Jia Deng,  Xintian Feng,  D. Ghosh,  
 M. Goldey,  P. R. Horn,  L. D. Jacobson,  I. Kaliman,  T. Kus,  A. Landau,  
 Jie Liu,  E. I. Proynov,  R. M. Richard,  R. P. Steele,  E. J. Sundstrom,  
 H. L. Woodcock III,  P. M. Zimmerman,  D. Zuev,  B. Alam,  B. Albrecht,  
 A. Aldossary,  E. Alguire,  S. A. Baeppler,  D. Barton,  Z. Benda,  
 Y. A. Bernard,  E. J. Berquist,  K. B. Bravaya,  H. Burton,  K. Carter-Fenk,  
 D. Casanova,  Chun-Min Chang,  Yunqing Chen,  A. Chien,  K. D. Closser,  
 M. P. Coons,  S. Coriani,  S. Dasgupta,  A. L. Dempwolff,  M. Diedenhofen,  
 Hainam Do,  R. G. Edgar,  Po-Tung Fang,  S. Faraji,  S. Fatehi,  
 Qingguo Feng,  J. Fosso-Tande,  J. Gayvert,  Qinghui Ge,  A. Ghysels,  
 G. Gidofalvi,  J. Gomes,  J. Gonthier,  S. Gulania,  A. Gunina,  D. Hait,  
 M. W. D. Hanson-Heine,  S. Hammes-Schiffer,  P. H. P. Harbach,  
 A. W. Hauser,  M. F. Herbst,  J. E. Herr,  E. G. Hohenstein,  Z. C. Holden,  
 S. Houck,  Kerwin Hui,  B. C. Huynh,  M. Ivanov,  T.-C. Jagau,  Hyunjun Ji,  
 B. Kaduk,  K. Khistyaev,  Jaehoon Kim,  P. Klunzinger,  K. Koh,  
 D. Kosenkov,  L. Koulias,  T. Kowalczyk,  C. M. Krauter,  A. Kunitsa,  
 Ka Un Lao,  A. Laurent,  K. V. Lawler,  Joonho Lee,  D. Lefrancois,  
 S. Lehtola,  D. S. Levine,  Yi-Pei Li,  You-Sheng Lin,  Fenglai Liu,  
 Kuan-Yu Liu,  E. Livshits,  M. Loipersberger,  A. Luenser,  P. Manohar,  
 E. Mansoor,  S. F. Manzer,  Shan-Ping Mao,  Yuezhi Mao,  N. Mardirossian,  
 A. V. Marenich,  T. Markovich,  L. A. Martinez-Martinez,  S. A. Maurer,  
 N. J. Mayhall,  S. C. McKenzie,  J.-M. Mewes,  P. Morgante,  A. F. Morrison,  
 J. W. Mullinax,  K. Nanda,  T. S. Nguyen-Beck,  R. Olivares-Amaya,  
 K. J. Oosterbaan,  J. A. Parkhill,  S. K. Paul,  F. Pavosevic,  Zheng Pei,  
 T. M. Perrine,  F. Plasser,  P. Pokhilko,  S. Prager,  A. Prociuk,  
 E. Ramos,  B. Rana,  D. R. Rehn,  F. Rob,  E. Rossomme,  M. Scheurer,  
 M. Schneider,  N. Sergueev,  S. M. Sharada,  S. Sharma,  W. Skomorowski,  
 D. W. Small,  T. Stauch,  C. J. Stein,  T. Stein,  Yu-Chuan Su,  
 S. P. Veccham,  Zhen Tao,  A. J. W. Thom,  A. Tkatchenko,  T. Tsuchimochi,  
 N. M. Tubman,  L. Vogt,  M. L. Vidal,  O. Vydrov,  M. A. Watson,  J. Wenzel,  
 M. de Wergifosse,  T. A. Wesolowski,  A. White,  J. Witte,  A. Yamada,  
 Jun Yang,  K. Yao,  S. Yeganeh,  S. R. Yost,  Zhi-Qiang You,  A. Zech,  
 Igor Ying Zhang,  Xing Zhang,  Yan Zhao,  Ying Zhu,  B. R. Brooks,  
 G. K. L. Chan,  C. J. Cramer,  M. S. Gordon,  W. J. Hehre,  A. Klamt,  
 M. W. Schmidt,  C. D. Sherrill,  D. G. Truhlar,  A. Aspuru-Guzik,  R. Baer,  
 A. T. Bell,  N. A. Besley,  Jeng-Da Chai,  A. E. DePrince, III,  
 R. A. DiStasio Jr.,  A. Dreuw,  B. D. Dunietz,  T. R. Furlani,  
 Chao-Ping Hsu,  Yousung Jung,  Jing Kong,  D. S. Lambrecht,  WanZhen Liang,  
 C. Ochsenfeld,  V. A. Rassolov,  L. V. Slipchenko,  J. E. Subotnik,  
 T. Van Voorhis,  J. M. Herbert,  A. I. Krylov,  P. M. W. Gill,  M. Head-Gordon

 Contributors to earlier versions of Q-Chem not listed above: 
 R. D. Adamson,  B. Austin,  J. Baker,  G. J. O. Beran,  K. Brandhorst,  
 S. T. Brown,  E. F. C. Byrd,  A. K. Chakraborty,  C.-L. Cheng,  
 Siu Hung Chien,  D. M. Chipman,  D. L. Crittenden,  H. Dachsel,  
 R. J. Doerksen,  A. D. Dutoi,  L. Fusti-Molnar,  W. A. Goddard III,  
 A. Golubeva-Zadorozhnaya,  S. R. Gwaltney,  G. Hawkins,  A. Heyden,  
 S. Hirata,  G. Kedziora,  F. J. Keil,  C. Kelley,  Jihan Kim,  R. A. King,  
 R. Z. Khaliullin,  P. P. Korambath,  W. Kurlancheek,  A. M. Lee,  M. S. Lee,  
 S. V. Levchenko,  Ching Yeh Lin,  D. Liotard,  R. C. Lochan,  I. Lotan,  
 P. E. Maslen,  N. Nair,  D. P. O'Neill,  D. Neuhauser,  E. Neuscamman,  
 C. M. Oana,  R. Olson,  B. Peters,  R. Peverati,  P. A. Pieniazek,  
 Y. M. Rhee,  J. Ritchie,  M. A. Rohrdanz,  E. Rosta,  N. J. Russ,  
 H. F. Schaefer III,  N. E. Schultz,  N. Shenvi,  A. C. Simmonett,  A. Sodt,  
 D. Stuck,  K. S. Thanthiriwatte,  V. Vanovschi,  Tao Wang,  A. Warshel,  
 C. F. Williams,  Q. Wu,  X. Xu,  W. Zhang

 Please cite Q-Chem as follows:
 Y. Shao et al., Mol. Phys. 113, 184-215 (2015)
 DOI: 10.1080/00268976.2014.952696

 Q-Chem 5.3.1 for Intel X86 EM64T Linux

 Parts of Q-Chem use Armadillo 9.800.1 (Horizon Scraper).
 http://arma.sourceforge.net/

 Q-Chem begins on Wed Jun 23 13:52:29 2021  

Host: 
0

     Scratch files written to /scratch/scaparas/job_3585689/qchem97886//
 Aug2920 |scratch|qcdevops|jenkins|workspace|build_RNUM    
Processing $rem in /cm/shared/apps/spack/cpu/opt/spack/linux-centos8-zen2/gcc-10.2.0/qchem-5.3-5qddma6gy34jvefiv7mbcb7qm253n45r/config/preferences:
Processing $rem in /home/scaparas/.qchemrc:

Checking the input file for inconsistencies... 	...done.

--------------------------------------------------------------
User input:
--------------------------------------------------------------
$molecule
0 1
C   -2.1510630    0.6892080    0.0000880
C   -2.1279270   -0.7158180    0.0000750
C   -0.9322970   -1.4131000   -0.0000110
C    0.2469110   -0.6702010   -0.0000420
C    0.2481930    0.7482990    0.0000000
C   -0.9794740    1.4235260    0.0000320
N    1.5617740   -1.0775920   -0.0002850
C    1.6201330    1.1629000   -0.0001570
C    2.3820130    0.0308060    0.0002480
H    1.8763150   -2.0300110    0.0004380
H    1.9921730    2.1730100   -0.0003480
H    3.4525490   -0.0824250    0.0004080
H   -3.0615940   -1.2620200    0.0000880
H   -0.9172520   -2.4953420   -0.0000730
H   -3.1042030    1.2007850    0.0000900
H   -1.0093480    2.5054210   -0.0000150
$end

$rem
BASIS  =  6-31+G*
GUI  =  2
JOB_TYPE  =  Optimization
METHOD  = WB97X
SCF_CONVERGENCE  =  8
THRESH = 12
CIS_N_ROOTS  = 3
CIS_SINGLETS = true
CIS_TRIPLETS = false
CIS_STATE_DERIV = 1
MEM_STATIC=500
MEM_TOTAL=3000
$end
--------------------------------------------------------------
 ----------------------------------------------------------------
             Standard Nuclear Orientation (Angstroms)
    I     Atom           X                Y                Z
 ----------------------------------------------------------------
    1      C       2.1510629040    -0.6892079969     0.0000583065
    2      C       2.1279268385     0.7158180020     0.0000481775
    3      C       0.9322968051     1.4130999466    -0.0000206639
    4      C      -0.2469111607     0.6702008918    -0.0000373513
    5      C      -0.2481930942    -0.7482991083     0.0000020775
    6      C       0.9794739374    -1.4235260513     0.0000165335
    7      N      -1.5617741827     1.0775918311    -0.0002621374
    8      C      -1.6201330769    -1.1629001718    -0.0001374500
    9      C      -2.3820131241    -0.0308062080     0.0002797387
   10      H      -1.8763152174     2.0300108152     0.0004667797
   11      H      -1.9921730325    -2.1730101887    -0.0003253498
   12      H      -3.4525491271     0.0824247420     0.0004541695
   13      H       3.0615938132     1.2620200454     0.0000497686
   14      H       0.9172517540     2.4953419460    -0.0000804893
   15      H       3.1042029277    -1.2007849526     0.0000467087
   16      H       1.0093479871    -2.5054210498    -0.0000328375
 ----------------------------------------------------------------
 Molecular Point Group                 C1    NOp =  1
 Largest Abelian Subgroup              C1    NOp =  1
 Nuclear Repulsion Energy =         401.33686680 hartrees
 There are       31 alpha and       31 beta electrons
 Requested basis set is 6-31+G(d)
 There are 59 shells and 185 basis functions

 Total QAlloc Memory Limit   3000 MB
 Mega-Array Size       489 MB
 MEM_STATIC part       500 MB
 A cutoff of  1.0D-12 yielded   1657 shell pairs
 There are     17105 function pairs
 Smallest overlap matrix eigenvalue = 1.26E-06

 Scale SEOQF with 1.000000e-01/1.000000e-01/1.000000e-01

 Standard Electronic Orientation quadrupole field applied
 Nucleus-field energy     =     0.0000000117 hartrees
 Guess from superposition of atomic densities
 Warning:  Energy on first SCF cycle will be non-variational
 SAD guess density has 62.000000 electrons

 -----------------------------------------------------------------------
  General SCF calculation program by
  Eric Jon Sundstrom, Paul Horn, Yuezhi Mao, Dmitri Zuev, Alec White,
  David Stuck, Shaama M.S., Shane Yost, Joonho Lee, David Small,
  Daniel Levine, Susi Lehtola, Hugh Burton, Evgeny Epifanovsky,
  Bang C. Huynh
 -----------------------------------------------------------------------
 Exchange:     0.1577 Hartree-Fock + 1.0000 wB97X + LR-HF
 Correlation:  1.0000 wB97X
 Using SG-2 standard quadrature grid
 using 4 threads for integral computing
 -------------------------------------------------------
 OpenMP Integral computing Module                
 Release: version 1.0, May 2013, Q-Chem Inc. Pittsburgh 
 -------------------------------------------------------
 using 4 threads for integral computing
 -------------------------------------------------------
 OpenMP Integral computing Module                
 Release: version 1.0, May 2013, Q-Chem Inc. Pittsburgh 
 -------------------------------------------------------
 A restricted SCF calculation will be
 performed using DIIS
 SCF converges when DIIS error is below 1.0e-08
 ---------------------------------------
  Cycle       Energy         DIIS error
 ---------------------------------------
    1    -366.9830087829      5.53e-02  
    2    -363.6637576752      3.30e-03  
    3    -363.7019353643      2.26e-03  
    4    -363.7230395672      5.61e-04  
    5    -363.7242815453      2.65e-04  
    6    -363.7245766723      3.62e-05  
    7    -363.7245859741      1.78e-05  
    8    -363.7245885587      5.34e-06  
    9    -363.7245890726      1.63e-06  
   10    -363.7245891315      1.04e-06  
   11    -363.7245891457      3.24e-07  
   12    -363.7245891480      1.58e-07  
   13    -363.7245891483      4.61e-08  
   14    -363.7245891483      1.57e-08  
   15    -363.7245891483      7.93e-09  Convergence criterion met
 ---------------------------------------
 SCF time:   CPU 86.66s  wall 22.00s 
 SCF   energy in the final basis set =     -363.7245891483
 Total energy in the final basis set =     -363.7245891483
 
 Direct TDDFT/TDA calculation will be performed
 Exchange:     0.1577 Hartree-Fock + 1.0000 wB97X + LR-HF
 Correlation:  1.0000 wB97X
 Using SG-2 standard quadrature grid
 Singlet excitation energies requested
 CIS energy converged when residual is below 10e- 6
 ---------------------------------------------------
 Iter    Rts Conv    Rts Left    Ttl Dev     Max Dev
 ---------------------------------------------------
   1         0           3      0.003731    0.001718
   2         0           3      0.001172    0.000538
   3         0           3      0.000753    0.000364
   4         0           3      0.000429    0.000183
   5         0           3      0.000173    0.000080
   6         0           3      0.000076    0.000032
   7         0           3      0.000035    0.000013
   8         0           3      0.000016    0.000006
   9         0           3      0.000006    0.000003
  10         2           1      0.000003    0.000001
  11         2           1      0.000002    0.000001
  12         3           0      0.000002    0.000001    Roots Converged
 ---------------------------------------------------
 
 ---------------------------------------------------
         TDDFT/TDA Excitation Energies              
 ---------------------------------------------------

 Excited state   1: excitation energy (eV) =    5.2705
 Total energy for state  1:                  -363.53090236 au
    Multiplicity: Singlet
    Trans. Mom.: -0.4061 X  -0.3145 Y   0.0001 Z
    Strength   :     0.0340704002
    D(   30) --> V(    1) amplitude =  0.7937
    D(   31) --> V(    5) amplitude =  0.5365

 Excited state   2: excitation energy (eV) =    5.4603
 Total energy for state  2:                  -363.52392711 au
    Multiplicity: Singlet
    Trans. Mom.: -0.7855 X   0.6732 Y   0.0002 Z
    Strength   :     0.1431781971
    D(   30) --> V(    5) amplitude = -0.3612
    D(   31) --> V(    1) amplitude =  0.9027

 Excited state   3: excitation energy (eV) =    6.0220
 Total energy for state  3:                  -363.50328399 au
    Multiplicity: Singlet
    Trans. Mom.: -0.0003 X   0.0003 Y  -0.1959 Z
    Strength   :     0.0056625586
    D(   31) --> V(    2) amplitude =  0.9195
 
 ---------------------------------------------------
 Calculating Relaxed Density
 ---------------------------------------------------
 Iter    Rts Conv    Rts Left    Ttl Dev     Max Dev
 ---------------------------------------------------
   1         0           3      0.000786    0.000349
   2         0           3      0.000330    0.000161
   3         0           3      0.000121    0.000050
   4         0           3      0.000039    0.000015
   5         0           3      0.000015    0.000006
   6         0           3      0.000005    0.000003
   7         3           0      0.000000    0.000000    Roots Converged
 ---------------------------------------------------
  SETman timing summary (seconds)
  CPU time               312.37s
  System time              0.00s
  Wall time               78.55s
 
 --------------------------------------------------------------
 
                    Orbital Energies (a.u.)
 --------------------------------------------------------------
 
 Alpha MOs
 -- Occupied --
-14.4614 -10.3080 -10.3050 -10.2754 -10.2709 -10.2706 -10.2699 -10.2646
-10.2610  -1.1168  -0.9753  -0.9156  -0.8666  -0.8478  -0.7484  -0.7168
 -0.7033  -0.6587  -0.5968  -0.5856  -0.5469  -0.5415  -0.5400  -0.5194
 -0.4983  -0.4587  -0.4470  -0.4367  -0.3817  -0.3121  -0.2942
 -- Virtual --
  0.0591   0.0665   0.0840   0.0883   0.0988   0.1013   0.1050   0.1204
  0.1262   0.1295   0.1317   0.1351   0.1540   0.1611   0.1683   0.1698
  0.1806   0.1954   0.2087   0.2093   0.2224   0.2267   0.2346   0.2397
  0.2402   0.2549   0.2571   0.2600   0.2663   0.2729   0.2786   0.2896
  0.2908   0.2999   0.3040   0.3085   0.3158   0.3170   0.3280   0.3348
  0.3456   0.3477   0.3644   0.3766   0.3916   0.4014   0.4022   0.4177
  0.4386   0.4613   0.4714   0.4963   0.5421   0.5503   0.6182   0.6891
  0.7355   0.7774   0.7794   0.8034   0.8225   0.8250   0.8407   0.8412
  0.8510   0.8575   0.8670   0.8829   0.8978   0.9091   0.9248   0.9599
  1.0032   1.0124   1.0238   1.0462   1.0531   1.0621   1.0706   1.0933
  1.1129   1.1395   1.1560   1.1765   1.2014   1.2221   1.2277   1.2795
  1.2889   1.3140   1.3317   1.3417   1.3636   1.4287   1.4291   1.4482
  1.4770   1.5237   1.5268   1.5620   1.5703   1.5746   1.6066   1.6130
  1.6507   1.7001   1.7615   1.8990   1.9560   1.9965   2.0018   2.0354
  2.0556   2.1082   2.1109   2.1165   2.1766   2.2132   2.2548   2.2858
  2.2859   2.3111   2.3621   2.3728   2.3779   2.3969   2.4258   2.4942
  2.5222   2.5585   2.6614   2.6738   2.7488   2.7702   2.7842   2.8149
  2.8515   2.9246   2.9604   2.9741   3.0698   3.0923   3.2302   3.3607
  3.5647   4.2716   4.3843   4.4136   4.4483   4.4847   4.5208   4.6037
  4.6434   4.9123
 --------------------------------------------------------------
 
          Ground-State Mulliken Net Atomic Charges

     Atom                 Charge (a.u.)
  ----------------------------------------
      1 C                    -0.044546
      2 C                    -0.444302
      3 C                    -0.074983
      4 C                    -0.698657
      5 C                     0.863885
      6 C                    -0.546879
      7 N                    -0.567604
      8 C                     0.107402
      9 C                    -0.251618
     10 H                     0.429878
     11 H                     0.214058
     12 H                     0.215352
     13 H                     0.196964
     14 H                     0.201301
     15 H                     0.195609
     16 H                     0.204140
  ----------------------------------------
  Sum of atomic charges =     0.000000

 -----------------------------------------------------------------
                    Cartesian Multipole Moments
 -----------------------------------------------------------------
    Charge (ESU x 10^10)
                -0.0000
    Dipole Moment (Debye)
         X      -1.4793      Y       1.5661      Z       0.0011
       Tot       2.1543
    Quadrupole Moments (Debye-Ang)
        XX     -44.8823     XY      -3.1664     YY     -44.1346
        XZ      -0.0033     YZ       0.0034     ZZ     -58.6976
    Octopole Moments (Debye-Ang^2)
       XXX     -14.8581    XXY       8.3353    XYY      -7.7991
       YYY      10.4499    XXZ       0.0078    XYZ      -0.0068
       YYZ       0.0021    XZZ      -1.9778    YZZ       2.0059
       ZZZ      -0.0009
    Hexadecapole Moments (Debye-Ang^3)
      XXXX    -803.7391   XXXY     -21.5271   XXYY    -194.0900
      XYYY     -19.6355   YYYY    -364.2987   XXXZ      -0.0242
      XXYZ       0.0134   XYYZ      -0.0073   YYYZ       0.0146
      XXZZ    -187.4554   XYZZ      -3.8724   YYZZ     -92.7135
      XZZZ      -0.0012   YZZZ       0.0031   ZZZZ     -71.5732
 -----------------------------------------------------------------
 Calculating analytic gradient of the CIS energy
 CIS relaxed dipole moment
            1
    1  -0.7434207
    2   0.5060016
    3   0.0002664
	Magnitude:	 0.899 au	 2.286 Debye
 CIS 1 State Energy is -363.5309023584
 Gradient of the state energy (including CIS Excitation Energy)
            1           2           3           4           5           6
    1  -0.0227448  -0.0238629   0.0109424   0.0164133   0.0086988   0.0207358
    2  -0.0038692  -0.0039324  -0.0259008  -0.0235621   0.0248665   0.0264840
    3   0.0000006   0.0000009  -0.0000032   0.0000108   0.0000338  -0.0000005
            7           8           9          10          11          12
    1  -0.0211267  -0.0058372   0.0160703   0.0009314   0.0012750   0.0039394
    2  -0.0023585   0.0012101   0.0075183  -0.0043983   0.0041375  -0.0004925
    3  -0.0000392  -0.0000392   0.0000460  -0.0000027  -0.0000091   0.0000038
           13          14          15          16
    1  -0.0029524   0.0002619  -0.0030587   0.0003146
    2  -0.0013207  -0.0032199   0.0016861   0.0031519
    3  -0.0000008   0.0000009  -0.0000003  -0.0000018
 Gradient time:  CPU 49.89 s  wall 12.55 s
 Geometry Optimization Parameters
   NAtoms,    NIC,     NZ,  NCons,   NDum,   NFix, NCnnct, MaxDiis
       16     116       0       0       0       0       0       0


** GEOMETRY OPTIMIZATION IN DELOCALIZED INTERNAL COORDINATES **
   Searching for a Minimum

   Optimization Cycle:   1

                       Coordinates (Angstroms)
     ATOM                X               Y               Z
      1  C         2.1510629040   -0.6892079969    0.0000583065
      2  C         2.1279268385    0.7158180020    0.0000481775
      3  C         0.9322968051    1.4130999466   -0.0000206639
      4  C        -0.2469111607    0.6702008918   -0.0000373513
      5  C        -0.2481930942   -0.7482991083    0.0000020775
      6  C         0.9794739374   -1.4235260513    0.0000165335
      7  N        -1.5617741827    1.0775918311   -0.0002621374
      8  C        -1.6201330769   -1.1629001718   -0.0001374500
      9  C        -2.3820131241   -0.0308062080    0.0002797387
     10  H        -1.8763152174    2.0300108152    0.0004667797
     11  H        -1.9921730325   -2.1730101887   -0.0003253498
     12  H        -3.4525491271    0.0824247420    0.0004541695
     13  H         3.0615938132    1.2620200454    0.0000497686
     14  H         0.9172517540    2.4953419460   -0.0000804893
     15  H         3.1042029277   -1.2007849526    0.0000467087
     16  H         1.0093479871   -2.5054210498   -0.0000328375
   Point Group: c1    Number of degrees of freedom:    42


   Energy is   -363.530902358


 Attempting to generate delocalized internal coordinates
 Initial Hessian constructed with Jon Baker's OPTIMIZE code

 42 Hessian modes will be used to form the next step
  Hessian Eigenvalues:
     0.018594    0.019738    0.020011    0.020794    0.021683    0.022200
     0.022636    0.023004    0.023236    0.023608    0.023851    0.023984
     0.024127    0.160000    0.160000    0.160000    0.160000    0.160000
     0.160000    0.160000    0.220000    0.221879    0.226618    0.240111
     0.246509    0.357123    0.357170    0.357835    0.357899    0.364196
     0.364272    0.370088    0.384319    0.426334    0.434649    0.457693
     0.466917    0.471622    0.474685    0.475669    0.481247    0.509555

 Minimum search - taking simple RFO step
 Searching for Lamda that Minimizes Along All modes
 Value Taken    Lamda =  -0.01019720
 Step Taken.  Stepsize is  0.151316

                             Maximum     Tolerance    Cnvgd?
         Gradient           0.041671      0.000300      NO
         Displacement       0.096681      0.001200      NO
         Energy change     *********      0.000001      NO


 New Cartesian Coordinates Obtained by Inverse Iteration

 Displacement from previous Coordinates is:  0.222844
 ----------------------------------------------------------------
             Standard Nuclear Orientation (Angstroms)
    I     Atom           X                Y                Z
 ----------------------------------------------------------------
    1      C       2.1690557905    -0.6926226548    -0.0000416897
    2      C       2.1570763184     0.7368833207    -0.0000070461
    3      C       0.9369623569     1.4539600998     0.0000454302
    4      C      -0.2498380884     0.6853922290     0.0000275862
    5      C      -0.2601991123    -0.7704017844    -0.0000026233
    6      C       0.9721179574    -1.4592232113    -0.0000153796
    7      N      -1.5603869326     1.0785564187    -0.0000867975
    8      C      -1.6366617797    -1.1766278657     0.0000783133
    9      C      -2.4027975625    -0.0374674161    -0.0000205019
   10      H      -1.8735708907     2.0365889143     0.0006554740
   11      H      -2.0128690120    -2.1917087728     0.0000621254
   12      H      -3.4782854212     0.0821412624    -0.0000844011
   13      H       3.0990139415     1.2780336831    -0.0000205539
   14      H       0.9154935634     2.5407365362     0.0000434440
   15      H       3.1269210264    -1.2060155595    -0.0000897483
   16      H       1.0010627963    -2.5456727069    -0.0000176505
 ----------------------------------------------------------------
 Molecular Point Group                 C1    NOp =  1
 Largest Abelian Subgroup              C1    NOp =  1
 Nuclear Repulsion Energy =         396.72195811 hartrees
 There are       31 alpha and       31 beta electrons
 Applying Cartesian multipole field
    Component          Value
    ---------          -----
     (2,0,0)        1.00000E-11
     (0,2,0)        2.00000E-11
     (0,0,2)       -3.00000E-11
 Nucleus-field energy     =     0.0000000120 hartrees
 Requested basis set is 6-31+G(d)
 There are 59 shells and 185 basis functions
 A cutoff of  1.0D-12 yielded   1656 shell pairs
 There are     17099 function pairs
 Smallest overlap matrix eigenvalue = 1.48E-06
 Guess MOs from SCF MO coefficient file

 -----------------------------------------------------------------------
  General SCF calculation program by
  Eric Jon Sundstrom, Paul Horn, Yuezhi Mao, Dmitri Zuev, Alec White,
  David Stuck, Shaama M.S., Shane Yost, Joonho Lee, David Small,
  Daniel Levine, Susi Lehtola, Hugh Burton, Evgeny Epifanovsky,
  Bang C. Huynh
 -----------------------------------------------------------------------
 Exchange:     0.1577 Hartree-Fock + 1.0000 wB97X + LR-HF
 Correlation:  1.0000 wB97X
 Using SG-2 standard quadrature grid
 using 4 threads for integral computing
 -------------------------------------------------------
 OpenMP Integral computing Module                
 Release: version 1.0, May 2013, Q-Chem Inc. Pittsburgh 
 -------------------------------------------------------
 using 4 threads for integral computing
 -------------------------------------------------------
 OpenMP Integral computing Module                
 Release: version 1.0, May 2013, Q-Chem Inc. Pittsburgh 
 -------------------------------------------------------
 A restricted SCF calculation will be
 performed using DIIS
 SCF converges when DIIS error is below 1.0e-08
 ---------------------------------------
  Cycle       Energy         DIIS error
 ---------------------------------------
    1    -363.7171321158      9.49e-04  
    2    -363.7200876657      1.84e-04  
    3    -363.7202397399      1.07e-04  
    4    -363.7202928224      2.45e-05  
    5    -363.7202977413      1.26e-05  
    6    -363.7202992794      4.14e-06  
    7    -363.7202996666      2.68e-06  
    8    -363.7202997829      7.39e-07  
    9    -363.7202997967      2.74e-07  
   10    -363.7202997982      1.56e-07  
   11    -363.7202997984      3.58e-08  
   12    -363.7202997984      2.13e-08  
   13    -363.7202997985      5.22e-09  Convergence criterion met
 ---------------------------------------
 SCF time:   CPU 76.01s  wall 19.00s 
 SCF   energy in the final basis set =     -363.7202997985
 Total energy in the final basis set =     -363.7202997985
 
 Direct TDDFT/TDA calculation will be performed
 Exchange:     0.1577 Hartree-Fock + 1.0000 wB97X + LR-HF
 Correlation:  1.0000 wB97X
 Using SG-2 standard quadrature grid
 Singlet excitation energies requested
 CIS energy converged when residual is below 10e- 6
 ---------------------------------------------------
 Iter    Rts Conv    Rts Left    Ttl Dev     Max Dev
 ---------------------------------------------------
   1         0           3      0.003787    0.001699
   2         0           3      0.001175    0.000536
   3         0           3      0.000756    0.000349
   4         0           3      0.000430    0.000169
   5         0           3      0.000170    0.000068
   6         0           3      0.000077    0.000027
   7         0           3      0.000038    0.000016
   8         0           3      0.000020    0.000010
   9         0           3      0.000009    0.000006
  10         2           1      0.000005    0.000004
  11         2           1      0.000004    0.000003
  12         2           1      0.000003    0.000002
  13         3           0      0.000002    0.000001    Roots Converged
 ---------------------------------------------------
 
 ---------------------------------------------------
         TDDFT/TDA Excitation Energies              
 ---------------------------------------------------

 Excited state   1: excitation energy (eV) =    5.0184
 Total energy for state  1:                  -363.53587859 au
    Multiplicity: Singlet
    Trans. Mom.: -0.4820 X  -0.3826 Y   0.0000 Z
    Strength   :     0.0465628372
    D(   30) --> V(    1) amplitude =  0.8013
    D(   31) --> V(    5) amplitude = -0.5114

 Excited state   2: excitation energy (eV) =    5.3142
 Total energy for state  2:                  -363.52500563 au
    Multiplicity: Singlet
    Trans. Mom.: -0.7123 X   0.6754 Y   0.0000 Z
    Strength   :     0.1254544921
    D(   30) --> V(    5) amplitude =  0.3848
    D(   31) --> V(    1) amplitude =  0.8805

 Excited state   3: excitation energy (eV) =    6.0353
 Total energy for state  3:                  -363.49850613 au
    Multiplicity: Singlet
    Trans. Mom.: -0.0000 X   0.0000 Y   0.1860 Z
    Strength   :     0.0051129344
    D(   31) --> V(    2) amplitude =  0.9141
 
 ---------------------------------------------------
 Calculating Relaxed Density
 ---------------------------------------------------
 Iter    Rts Conv    Rts Left    Ttl Dev     Max Dev
 ---------------------------------------------------
   1         0           3      0.000784    0.000358
   2         0           3      0.000334    0.000168
   3         0           3      0.000127    0.000052
   4         0           3      0.000043    0.000019
   5         0           3      0.000019    0.000009
   6         0           3      0.000006    0.000003
   7         3           0      0.000000    0.000000    Roots Converged
 ---------------------------------------------------
  SETman timing summary (seconds)
  CPU time               317.44s
  System time              0.00s
  Wall time               79.83s
 
 --------------------------------------------------------------
 
                    Orbital Energies (a.u.)
 --------------------------------------------------------------
 
 Alpha MOs
 -- Occupied --
-14.4641 -10.3128 -10.3124 -10.2828 -10.2793 -10.2789 -10.2771 -10.2727
-10.2664  -1.1132  -0.9633  -0.9145  -0.8588  -0.8455  -0.7466  -0.7154
 -0.7001  -0.6537  -0.6006  -0.5810  -0.5435  -0.5395  -0.5377  -0.5170
 -0.4987  -0.4573  -0.4395  -0.4384  -0.3827  -0.3064  -0.2941
 -- Virtual --
  0.0528   0.0664   0.0839   0.0879   0.0932   0.1008   0.1043   0.1195
  0.1259   0.1286   0.1306   0.1347   0.1538   0.1603   0.1674   0.1689
  0.1805   0.1950   0.2069   0.2080   0.2207   0.2258   0.2335   0.2380
  0.2385   0.2553   0.2562   0.2588   0.2657   0.2717   0.2729   0.2849
  0.2878   0.2975   0.3009   0.3078   0.3095   0.3143   0.3276   0.3331
  0.3401   0.3450   0.3634   0.3708   0.3827   0.3927   0.3972   0.4108
  0.4276   0.4539   0.4635   0.4863   0.5278   0.5450   0.6098   0.6682
  0.7040   0.7784   0.7784   0.8030   0.8124   0.8253   0.8367   0.8407
  0.8415   0.8567   0.8592   0.8808   0.8957   0.8983   0.9205   0.9559
  0.9985   1.0086   1.0196   1.0451   1.0529   1.0609   1.0686   1.0935
  1.1021   1.1374   1.1554   1.1731   1.1973   1.2170   1.2210   1.2733
  1.2834   1.3083   1.3288   1.3435   1.3509   1.4199   1.4294   1.4490
  1.4692   1.5107   1.5188   1.5439   1.5673   1.5788   1.6015   1.6045
  1.6398   1.6899   1.7510   1.8936   1.9318   1.9842   1.9949   2.0131
  2.0293   2.0933   2.0983   2.1108   2.1508   2.1636   2.2266   2.2410
  2.2594   2.2939   2.3358   2.3460   2.3643   2.3704   2.4038   2.4714
  2.5123   2.5455   2.6397   2.6521   2.7296   2.7345   2.7543   2.7837
  2.8219   2.8958   2.9346   2.9422   3.0621   3.0701   3.2017   3.3293
  3.4868   4.2583   4.3570   4.4093   4.4397   4.4771   4.5142   4.5942
  4.6361   4.8842
 --------------------------------------------------------------
 
          Ground-State Mulliken Net Atomic Charges

     Atom                 Charge (a.u.)
  ----------------------------------------
      1 C                    -0.074079
      2 C                    -0.400107
      3 C                    -0.131306
      4 C                    -0.642672
      5 C                     0.798715
      6 C                    -0.521603
      7 N                    -0.557747
      8 C                     0.102871
      9 C                    -0.244177
     10 H                     0.430396
     11 H                     0.216384
     12 H                     0.217782
     13 H                     0.199453
     14 H                     0.204018
     15 H                     0.194849
     16 H                     0.207224
  ----------------------------------------
  Sum of atomic charges =     0.000000

 -----------------------------------------------------------------
                    Cartesian Multipole Moments
 -----------------------------------------------------------------
    Charge (ESU x 10^10)
                -0.0000
    Dipole Moment (Debye)
         X      -1.5882      Y       1.5302      Z       0.0010
       Tot       2.2054
    Quadrupole Moments (Debye-Ang)
        XX     -44.8397     XY      -2.9819     YY     -43.9078
        XZ      -0.0023     YZ       0.0030     ZZ     -59.2381
    Octopole Moments (Debye-Ang^2)
       XXX     -15.6349    XXY       8.4513    XYY      -7.8915
       YYY      10.2281    XXZ       0.0024    XYZ      -0.0056
       YYZ       0.0060    XZZ      -2.4460    YZZ       2.0038
       ZZZ      -0.0008
    Hexadecapole Moments (Debye-Ang^3)
      XXXX    -814.4909   XXXY     -22.0355   XXYY    -198.2503
      XYYY     -21.3349   YYYY    -374.0162   XXXZ      -0.0044
      XXYZ       0.0107   XYYZ      -0.0116   YYYZ       0.0112
      XXZZ    -191.8581   XYZZ      -4.6537   YYZZ     -95.9600
      XZZZ       0.0028   YZZZ      -0.0005   ZZZZ     -73.1284
 -----------------------------------------------------------------
 Calculating analytic gradient of the CIS energy
 CIS relaxed dipole moment
            1
    1  -0.7253391
    2   0.4884185
    3   0.0003326
	Magnitude:	 0.874 au	 2.223 Debye
 CIS 1 State Energy is -363.5358785851
 Gradient of the state energy (including CIS Excitation Energy)
            1           2           3           4           5           6
    1   0.0009166   0.0001896   0.0009303   0.0042861  -0.0010859   0.0022749
    2  -0.0045378   0.0035324  -0.0009850  -0.0031931   0.0036461   0.0008799
    3  -0.0000007  -0.0000010  -0.0000018   0.0000044  -0.0000050   0.0000016
            7           8           9          10          11          12
    1  -0.0091201  -0.0020088   0.0045347   0.0003315  -0.0002076  -0.0006980
    2   0.0010312  -0.0050241   0.0049409  -0.0001699  -0.0001062  -0.0006943
    3  -0.0000077   0.0000134  -0.0000120   0.0000090   0.0000004  -0.0000010
           13          14          15          16
    1   0.0003208   0.0000809   0.0002033  -0.0009485
    2   0.0006855   0.0007539   0.0000668  -0.0008262
    3   0.0000002   0.0000009  -0.0000005  -0.0000003
 Gradient time:  CPU 48.97 s  wall 12.31 s
 Geometry Optimization Parameters
   NAtoms,    NIC,     NZ,  NCons,   NDum,   NFix, NCnnct, MaxDiis
       16     116       0       0       0       0       0       0

 Cartesian Hessian Update
 Hessian updated using BFGS update


** GEOMETRY OPTIMIZATION IN DELOCALIZED INTERNAL COORDINATES **
   Searching for a Minimum

   Optimization Cycle:   2

                       Coordinates (Angstroms)
     ATOM                X               Y               Z
      1  C         2.1690557905   -0.6926226548   -0.0000416897
      2  C         2.1570763184    0.7368833207   -0.0000070461
      3  C         0.9369623569    1.4539600998    0.0000454302
      4  C        -0.2498380884    0.6853922290    0.0000275862
      5  C        -0.2601991123   -0.7704017844   -0.0000026233
      6  C         0.9721179574   -1.4592232113   -0.0000153796
      7  N        -1.5603869326    1.0785564187   -0.0000867975
      8  C        -1.6366617797   -1.1766278657    0.0000783133
      9  C        -2.4027975625   -0.0374674161   -0.0000205019
     10  H        -1.8735708907    2.0365889143    0.0006554740
     11  H        -2.0128690120   -2.1917087728    0.0000621254
     12  H        -3.4782854212    0.0821412624   -0.0000844011
     13  H         3.0990139415    1.2780336831   -0.0000205539
     14  H         0.9154935634    2.5407365362    0.0000434440
     15  H         3.1269210264   -1.2060155595   -0.0000897483
     16  H         1.0010627963   -2.5456727069   -0.0000176505
   Point Group: c1    Number of degrees of freedom:    42


   Energy is   -363.535878585

 Hessian updated using BFGS update

 40 Hessian modes will be used to form the next step
  Hessian Eigenvalues:
     0.018594    0.019738    0.020011    0.020794    0.021683    0.022200
     0.022636    0.023004    0.023236    0.023608    0.023851    0.023984
     0.024127    0.159695    0.160000    0.160000    0.160000    0.160142
     0.213432    0.220296    0.226590    0.240788    0.246131    0.357144
     0.357344    0.357808    0.358456    0.364159    0.364748    0.369115
     0.382551    0.426007    0.438674    0.442364    0.463579    0.471670
     0.472424    0.475388    0.492043    0.550930

 Minimum search - taking simple RFO step
 Searching for Lamda that Minimizes Along All modes
 Value Taken    Lamda =  -0.00028346
 Step Taken.  Stepsize is  0.030864

                             Maximum     Tolerance    Cnvgd?
         Gradient           0.004789      0.000300      NO
         Displacement       0.015142      0.001200      NO
         Energy change     -0.004976      0.000001      NO


 New Cartesian Coordinates Obtained by Inverse Iteration

 Displacement from previous Coordinates is:  0.037945
 ----------------------------------------------------------------
             Standard Nuclear Orientation (Angstroms)
    I     Atom           X                Y                Z
 ----------------------------------------------------------------
    1      C       2.1641247929    -0.6892885771    -0.0000126403
    2      C       2.1531005793     0.7361819188     0.0000129823
    3      C       0.9341740850     1.4558339881     0.0000258591
    4      C      -0.2494801789     0.6844971892     0.0000109823
    5      C      -0.2596161493    -0.7736170121    -0.0000192109
    6      C       0.9704451420    -1.4619428062    -0.0000286670
    7      N      -1.5536659337     1.0752169420    -0.0000805830
    8      C      -1.6353187797    -1.1736477987     0.0000062993
    9      C      -2.4046182095    -0.0387984909     0.0000953822
   10      H      -1.8658325940     2.0340367963     0.0005237076
   11      H      -2.0106164472    -2.1889755895    -0.0000548472
   12      H      -3.4786345960     0.0871376254     0.0000947781
   13      H       3.0966067818     1.2729938745     0.0000123578
   14      H       0.9115662016     2.5415968623     0.0000061432
   15      H       3.1224661576    -1.2016210031    -0.0000313489
   16      H       1.0083940993    -2.5470514263    -0.0000352135
 ----------------------------------------------------------------
 Molecular Point Group                 C1    NOp =  1
 Largest Abelian Subgroup              C1    NOp =  1
 Nuclear Repulsion Energy =         397.08098585 hartrees
 There are       31 alpha and       31 beta electrons
 Applying Cartesian multipole field
    Component          Value
    ---------          -----
     (2,0,0)        1.00000E-11
     (0,2,0)        2.00000E-11
     (0,0,2)       -3.00000E-11
 Nucleus-field energy     =     0.0000000120 hartrees
 Requested basis set is 6-31+G(d)
 There are 59 shells and 185 basis functions
 A cutoff of  1.0D-12 yielded   1656 shell pairs
 There are     17099 function pairs
 Smallest overlap matrix eigenvalue = 1.46E-06
 Guess MOs from SCF MO coefficient file

 -----------------------------------------------------------------------
  General SCF calculation program by
  Eric Jon Sundstrom, Paul Horn, Yuezhi Mao, Dmitri Zuev, Alec White,
  David Stuck, Shaama M.S., Shane Yost, Joonho Lee, David Small,
  Daniel Levine, Susi Lehtola, Hugh Burton, Evgeny Epifanovsky,
  Bang C. Huynh
 -----------------------------------------------------------------------
 Exchange:     0.1577 Hartree-Fock + 1.0000 wB97X + LR-HF
 Correlation:  1.0000 wB97X
 Using SG-2 standard quadrature grid
 using 4 threads for integral computing
 -------------------------------------------------------
 OpenMP Integral computing Module                
 Release: version 1.0, May 2013, Q-Chem Inc. Pittsburgh 
 -------------------------------------------------------
 using 4 threads for integral computing
 -------------------------------------------------------
 OpenMP Integral computing Module                
 Release: version 1.0, May 2013, Q-Chem Inc. Pittsburgh 
 -------------------------------------------------------
 A restricted SCF calculation will be
 performed using DIIS
 SCF converges when DIIS error is below 1.0e-08
 ---------------------------------------
  Cycle       Energy         DIIS error
 ---------------------------------------
    1    -363.7198993511      1.56e-04  
    2    -363.7200043698      3.00e-05  
    3    -363.7200093000      2.39e-05  
    4    -363.7200116502      5.51e-06  
    5    -363.7200119718      2.17e-06  
    6    -363.7200120290      1.04e-06  
    7    -363.7200120496      4.04e-07  
    8    -363.7200120529      1.70e-07  
    9    -363.7200120533      7.02e-08  
   10    -363.7200120534      2.30e-08  
   11    -363.7200120534      9.98e-09  Convergence criterion met
 ---------------------------------------
 SCF time:   CPU 63.92s  wall 16.00s 
 SCF   energy in the final basis set =     -363.7200120534
 Total energy in the final basis set =     -363.7200120534
 
 Direct TDDFT/TDA calculation will be performed
 Exchange:     0.1577 Hartree-Fock + 1.0000 wB97X + LR-HF
 Correlation:  1.0000 wB97X
 Using SG-2 standard quadrature grid
 Singlet excitation energies requested
 CIS energy converged when residual is below 10e- 6
 ---------------------------------------------------
 Iter    Rts Conv    Rts Left    Ttl Dev     Max Dev
 ---------------------------------------------------
   1         0           3      0.003796    0.001694
   2         0           3      0.001173    0.000530
   3         0           3      0.000752    0.000341
   4         0           3      0.000428    0.000169
   5         0           3      0.000169    0.000066
   6         0           3      0.000077    0.000027
   7         0           3      0.000039    0.000018
   8         0           3      0.000021    0.000012
   9         0           3      0.000010    0.000007
  10         2           1      0.000006    0.000005
  11         2           1      0.000004    0.000003
  12         2           1      0.000003    0.000002
  13         3           0      0.000002    0.000001    Roots Converged
 ---------------------------------------------------
 
 ---------------------------------------------------
         TDDFT/TDA Excitation Energies              
 ---------------------------------------------------

 Excited state   1: excitation energy (eV) =    5.0055
 Total energy for state  1:                  -363.53606360 au
    Multiplicity: Singlet
    Trans. Mom.: -0.5006 X  -0.4156 Y   0.0000 Z
    Strength   :     0.0519152788
    D(   30) --> V(    1) amplitude =  0.7977
    D(   31) --> V(    5) amplitude = -0.4953

 Excited state   2: excitation energy (eV) =    5.3130
 Total energy for state  2:                  -363.52476434 au
    Multiplicity: Singlet
    Trans. Mom.: -0.7071 X   0.6767 Y   0.0001 Z
    Strength   :     0.1246885776
    D(   30) --> V(    5) amplitude =  0.3779
    D(   31) --> V(    1) amplitude =  0.8704

 Excited state   3: excitation energy (eV) =    6.0371
 Total energy for state  3:                  -363.49815094 au
    Multiplicity: Singlet
    Trans. Mom.: -0.0000 X   0.0000 Y   0.1789 Z
    Strength   :     0.0047341459
    D(   31) --> V(    2) amplitude =  0.9122
 
 ---------------------------------------------------
 Calculating Relaxed Density
 ---------------------------------------------------
 Iter    Rts Conv    Rts Left    Ttl Dev     Max Dev
 ---------------------------------------------------
   1         0           3      0.000786    0.000360
   2         0           3      0.000338    0.000170
   3         0           3      0.000130    0.000056
   4         0           3      0.000045    0.000021
   5         0           3      0.000020    0.000010
   6         0           3      0.000006    0.000003
   7         3           0      0.000000    0.000000    Roots Converged
 ---------------------------------------------------
  SETman timing summary (seconds)
  CPU time               317.08s
  System time              0.00s
  Wall time               79.74s
 
 --------------------------------------------------------------
 
                    Orbital Energies (a.u.)
 --------------------------------------------------------------
 
 Alpha MOs
 -- Occupied --
-14.4637 -10.3127 -10.3120 -10.2822 -10.2787 -10.2787 -10.2767 -10.2718
-10.2662  -1.1139  -0.9634  -0.9153  -0.8586  -0.8461  -0.7473  -0.7152
 -0.7001  -0.6537  -0.6012  -0.5812  -0.5432  -0.5394  -0.5382  -0.5172
 -0.4992  -0.4568  -0.4394  -0.4386  -0.3835  -0.3057  -0.2943
 -- Virtual --
  0.0523   0.0664   0.0839   0.0879   0.0940   0.1007   0.1043   0.1197
  0.1259   0.1287   0.1306   0.1347   0.1538   0.1604   0.1674   0.1689
  0.1806   0.1952   0.2069   0.2080   0.2210   0.2258   0.2336   0.2382
  0.2383   0.2555   0.2563   0.2590   0.2658   0.2717   0.2729   0.2851
  0.2879   0.2980   0.3008   0.3078   0.3099   0.3140   0.3277   0.3333
  0.3396   0.3454   0.3644   0.3711   0.3836   0.3938   0.3975   0.4113
  0.4278   0.4550   0.4636   0.4871   0.5278   0.5481   0.6107   0.6685
  0.7044   0.7778   0.7784   0.8030   0.8123   0.8251   0.8385   0.8416
  0.8416   0.8568   0.8600   0.8806   0.8960   0.8986   0.9205   0.9561
  0.9991   1.0087   1.0197   1.0457   1.0533   1.0608   1.0688   1.0940
  1.1024   1.1372   1.1563   1.1732   1.1971   1.2176   1.2217   1.2741
  1.2844   1.3096   1.3289   1.3433   1.3505   1.4205   1.4299   1.4493
  1.4704   1.5098   1.5169   1.5433   1.5694   1.5792   1.6021   1.6042
  1.6411   1.6931   1.7498   1.8951   1.9326   1.9868   1.9961   2.0135
  2.0329   2.0954   2.1010   2.1122   2.1510   2.1609   2.2294   2.2430
  2.2569   2.2989   2.3358   2.3445   2.3694   2.3699   2.4059   2.4730
  2.5149   2.5473   2.6433   2.6555   2.7291   2.7365   2.7548   2.7847
  2.8228   2.8974   2.9361   2.9447   3.0665   3.0726   3.2030   3.3336
  3.4899   4.2583   4.3591   4.4099   4.4411   4.4784   4.5152   4.5954
  4.6365   4.8856
 --------------------------------------------------------------
 
          Ground-State Mulliken Net Atomic Charges

     Atom                 Charge (a.u.)
  ----------------------------------------
      1 C                    -0.075982
      2 C                    -0.395730
      3 C                    -0.139717
      4 C                    -0.631982
      5 C                     0.799100
      6 C                    -0.524411
      7 N                    -0.559042
      8 C                     0.099093
      9 C                    -0.240902
     10 H                     0.429798
     11 H                     0.215919
     12 H                     0.218596
     13 H                     0.199214
     14 H                     0.204255
     15 H                     0.193984
     16 H                     0.207806
  ----------------------------------------
  Sum of atomic charges =     0.000000

 -----------------------------------------------------------------
                    Cartesian Multipole Moments
 -----------------------------------------------------------------
    Charge (ESU x 10^10)
                -0.0000
    Dipole Moment (Debye)
         X      -1.5988      Y       1.5256      Z       0.0009
       Tot       2.2099
    Quadrupole Moments (Debye-Ang)
        XX     -44.8512     XY      -2.9912     YY     -43.9199
        XZ      -0.0021     YZ       0.0026     ZZ     -59.2041
    Octopole Moments (Debye-Ang^2)
       XXX     -15.8063    XXY       8.4698    XYY      -7.7552
       YYY      10.2023    XXZ       0.0034    XYZ      -0.0050
       YYZ       0.0037    XZZ      -2.4139    YZZ       2.0138
       ZZZ      -0.0014
    Hexadecapole Moments (Debye-Ang^3)
      XXXX    -812.1078   XXXY     -22.0729   XXYY    -198.1900
      XYYY     -21.5812   YYYY    -373.8326   XXXZ      -0.0058
      XXYZ       0.0089   XYYZ      -0.0076   YYYZ       0.0084
      XXZZ    -191.3517   XYZZ      -4.6696   YYZZ     -95.8464
      XZZZ       0.0043   YZZZ      -0.0018   ZZZZ     -73.0412
 -----------------------------------------------------------------
 Calculating analytic gradient of the CIS energy
 CIS relaxed dipole moment
            1
    1  -0.7224963
    2   0.4828942
    3   0.0002567
	Magnitude:	 0.869 au	 2.209 Debye
 CIS 1 State Energy is -363.5360635981
 Gradient of the state energy (including CIS Excitation Energy)
            1           2           3           4           5           6
    1   0.0006095   0.0003022  -0.0005507   0.0018222  -0.0007444   0.0004807
    2  -0.0017375   0.0011577   0.0000811  -0.0005006   0.0005905  -0.0000808
    3   0.0000003  -0.0000000  -0.0000022   0.0000057   0.0000050  -0.0000002
            7           8           9          10          11          12
    1  -0.0035392   0.0002731   0.0020358   0.0001173  -0.0000913  -0.0003537
    2  -0.0009190  -0.0012129   0.0027747  -0.0000490   0.0001249  -0.0004000
    3  -0.0000172  -0.0000037   0.0000082   0.0000058  -0.0000020   0.0000002
           13          14          15          16
    1  -0.0000420   0.0000487   0.0000067  -0.0003748
    2   0.0001087   0.0001078   0.0001116  -0.0001571
    3  -0.0000001   0.0000004  -0.0000002  -0.0000001
 Gradient time:  CPU 48.85 s  wall 12.28 s
 Geometry Optimization Parameters
   NAtoms,    NIC,     NZ,  NCons,   NDum,   NFix, NCnnct, MaxDiis
       16     116       0       0       0       0       0       0

 Cartesian Hessian Update
 Hessian updated using BFGS update


** GEOMETRY OPTIMIZATION IN DELOCALIZED INTERNAL COORDINATES **
   Searching for a Minimum

   Optimization Cycle:   3

                       Coordinates (Angstroms)
     ATOM                X               Y               Z
      1  C         2.1641247929   -0.6892885771   -0.0000126403
      2  C         2.1531005793    0.7361819188    0.0000129823
      3  C         0.9341740850    1.4558339881    0.0000258591
      4  C        -0.2494801789    0.6844971892    0.0000109823
      5  C        -0.2596161493   -0.7736170121   -0.0000192109
      6  C         0.9704451420   -1.4619428062   -0.0000286670
      7  N        -1.5536659337    1.0752169420   -0.0000805830
      8  C        -1.6353187797   -1.1736477987    0.0000062993
      9  C        -2.4046182095   -0.0387984909    0.0000953822
     10  H        -1.8658325940    2.0340367963    0.0005237076
     11  H        -2.0106164472   -2.1889755895   -0.0000548472
     12  H        -3.4786345960    0.0871376254    0.0000947781
     13  H         3.0966067818    1.2729938745    0.0000123578
     14  H         0.9115662016    2.5415968623    0.0000061432
     15  H         3.1224661576   -1.2016210031   -0.0000313489
     16  H         1.0083940993   -2.5470514263   -0.0000352135
   Point Group: c1    Number of degrees of freedom:    42


   Energy is   -363.536063598

 Hessian updated using BFGS update

 39 Hessian modes will be used to form the next step
  Hessian Eigenvalues:
     0.018593    0.019738    0.020011    0.020794    0.021683    0.022200
     0.022636    0.023004    0.023236    0.023608    0.023851    0.023984
     0.024127    0.139723    0.160000    0.160012    0.160340    0.198564
     0.222553    0.227143    0.241674    0.244807    0.350378    0.357149
     0.357771    0.358436    0.360821    0.364741    0.366400    0.378640
     0.391525    0.426531    0.444370    0.462949    0.471651    0.474927
     0.484561    0.493463    0.529833

 Minimum search - taking simple RFO step
 Searching for Lamda that Minimizes Along All modes
 Value Taken    Lamda =  -0.00005797
 Step Taken.  Stepsize is  0.017065

                             Maximum     Tolerance    Cnvgd?
         Gradient           0.001760      0.000300      NO
         Displacement       0.008013      0.001200      NO
         Energy change     -0.000185      0.000001      NO


 New Cartesian Coordinates Obtained by Inverse Iteration

 Displacement from previous Coordinates is:  0.020879
 ----------------------------------------------------------------
             Standard Nuclear Orientation (Angstroms)
    I     Atom           X                Y                Z
 ----------------------------------------------------------------
    1      C       2.1615473525    -0.6865903720    -0.0000429998
    2      C       2.1520531757     0.7361462369     0.0000022432
    3      C       0.9338465590     1.4559300933     0.0000507822
    4      C      -0.2495441396     0.6836090840     0.0000352391
    5      C      -0.2601492878    -0.7752563529    -0.0000201592
    6      C       0.9696834385    -1.4620596836    -0.0000465765
    7      N      -1.5500886256     1.0740238012     0.0000176670
    8      C      -1.6365684570    -1.1737554987     0.0000657941
    9      C      -2.4066489854    -0.0405420811     0.0000307520
   10      H      -1.8615011095     2.0333249566     0.0004925211
   11      H      -2.0106819575    -2.1897812795     0.0000518582
   12      H      -3.4793682892     0.0909936090    -0.0000422769
   13      H       3.0965996758     1.2710492129    -0.0000008186
   14      H       0.9104921959     2.5414345602     0.0000508753
   15      H       3.1198315644    -1.1993570056    -0.0000704594
   16      H       1.0135918410    -2.5466167880    -0.0000484606
 ----------------------------------------------------------------
 Molecular Point Group                 C1    NOp =  1
 Largest Abelian Subgroup              C1    NOp =  1
 Nuclear Repulsion Energy =         397.19033221 hartrees
 There are       31 alpha and       31 beta electrons
 Applying Cartesian multipole field
    Component          Value
    ---------          -----
     (2,0,0)        1.00000E-11
     (0,2,0)        2.00000E-11
     (0,0,2)       -3.00000E-11
 Nucleus-field energy     =     0.0000000119 hartrees
 Requested basis set is 6-31+G(d)
 There are 59 shells and 185 basis functions
 A cutoff of  1.0D-12 yielded   1656 shell pairs
 There are     17099 function pairs
 Smallest overlap matrix eigenvalue = 1.45E-06
 Guess MOs from SCF MO coefficient file

 -----------------------------------------------------------------------
  General SCF calculation program by
  Eric Jon Sundstrom, Paul Horn, Yuezhi Mao, Dmitri Zuev, Alec White,
  David Stuck, Shaama M.S., Shane Yost, Joonho Lee, David Small,
  Daniel Levine, Susi Lehtola, Hugh Burton, Evgeny Epifanovsky,
  Bang C. Huynh
 -----------------------------------------------------------------------
 Exchange:     0.1577 Hartree-Fock + 1.0000 wB97X + LR-HF
 Correlation:  1.0000 wB97X
 Using SG-2 standard quadrature grid
 using 4 threads for integral computing
 -------------------------------------------------------
 OpenMP Integral computing Module                
 Release: version 1.0, May 2013, Q-Chem Inc. Pittsburgh 
 -------------------------------------------------------
 using 4 threads for integral computing
 -------------------------------------------------------
 OpenMP Integral computing Module                
 Release: version 1.0, May 2013, Q-Chem Inc. Pittsburgh 
 -------------------------------------------------------
 A restricted SCF calculation will be
 performed using DIIS
 SCF converges when DIIS error is below 1.0e-08
 ---------------------------------------
  Cycle       Energy         DIIS error
 ---------------------------------------
    1    -363.7197709526      6.85e-05  
    2    -363.7197968971      1.57e-05  
    3    -363.7197984249      1.21e-05  
    4    -363.7197991074      2.65e-06  
    5    -363.7197991996      1.22e-06  
    6    -363.7197992194      6.28e-07  
    7    -363.7197992264      2.12e-07  
    8    -363.7197992272      9.23e-08  
    9    -363.7197992273      3.47e-08  
   10    -363.7197992273      1.32e-08  
   11    -363.7197992273      5.10e-09  Convergence criterion met
 ---------------------------------------
 SCF time:   CPU 63.66s  wall 16.00s 
 SCF   energy in the final basis set =     -363.7197992273
 Total energy in the final basis set =     -363.7197992273
 
 Direct TDDFT/TDA calculation will be performed
 Exchange:     0.1577 Hartree-Fock + 1.0000 wB97X + LR-HF
 Correlation:  1.0000 wB97X
 Using SG-2 standard quadrature grid
 Singlet excitation energies requested
 CIS energy converged when residual is below 10e- 6
 ---------------------------------------------------
 Iter    Rts Conv    Rts Left    Ttl Dev     Max Dev
 ---------------------------------------------------
   1         0           3      0.003801    0.001699
   2         0           3      0.001172    0.000526
   3         0           3      0.000751    0.000336
   4         0           3      0.000427    0.000172
   5         0           3      0.000169    0.000065
   6         0           3      0.000078    0.000027
   7         0           3      0.000040    0.000019
   8         0           3      0.000022    0.000013
   9         0           3      0.000011    0.000008
  10         2           1      0.000006    0.000005
  11         2           1      0.000005    0.000003
  12         2           1      0.000003    0.000002
  13         3           0      0.000002    0.000001    Roots Converged
 ---------------------------------------------------
 
 ---------------------------------------------------
         TDDFT/TDA Excitation Energies              
 ---------------------------------------------------

 Excited state   1: excitation energy (eV) =    4.9988
 Total energy for state  1:                  -363.53609504 au
    Multiplicity: Singlet
    Trans. Mom.: -0.5114 X  -0.4400 Y   0.0000 Z
    Strength   :     0.0557440287
    D(   30) --> V(    1) amplitude =  0.7894
    D(   31) --> V(    1) amplitude = -0.2545
    D(   31) --> V(    5) amplitude = -0.4815

 Excited state   2: excitation energy (eV) =    5.3192
 Total energy for state  2:                  -363.52432304 au
    Multiplicity: Singlet
    Trans. Mom.: -0.6987 X   0.6732 Y   0.0001 Z
    Strength   :     0.1226749494
    D(   30) --> V(    1) amplitude =  0.2132
    D(   30) --> V(    5) amplitude =  0.3712
    D(   31) --> V(    1) amplitude =  0.8577

 Excited state   3: excitation energy (eV) =    6.0426
 Total energy for state  3:                  -363.49773843 au
    Multiplicity: Singlet
    Trans. Mom.: -0.0000 X   0.0000 Y   0.1707 Z
    Strength   :     0.0043149960
    D(   31) --> V(    2) amplitude =  0.9100
 
 ---------------------------------------------------
 Calculating Relaxed Density
 ---------------------------------------------------
 Iter    Rts Conv    Rts Left    Ttl Dev     Max Dev
 ---------------------------------------------------
   1         0           3      0.000788    0.000361
   2         0           3      0.000342    0.000172
   3         0           3      0.000133    0.000059
   4         0           3      0.000046    0.000023
   5         0           3      0.000020    0.000011
   6         0           3      0.000006    0.000003
   7         3           0      0.000000    0.000000    Roots Converged
 ---------------------------------------------------
  SETman timing summary (seconds)
  CPU time               321.36s
  System time              0.00s
  Wall time               80.93s
 
 --------------------------------------------------------------
 
                    Orbital Energies (a.u.)
 --------------------------------------------------------------
 
 Alpha MOs
 -- Occupied --
-14.4634 -10.3128 -10.3118 -10.2819 -10.2786 -10.2784 -10.2766 -10.2711
-10.2665  -1.1139  -0.9635  -0.9156  -0.8583  -0.8465  -0.7475  -0.7151
 -0.7001  -0.6536  -0.6014  -0.5814  -0.5430  -0.5392  -0.5383  -0.5176
 -0.4995  -0.4565  -0.4394  -0.4387  -0.3838  -0.3054  -0.2946
 -- Virtual --
  0.0522   0.0664   0.0839   0.0878   0.0945   0.1007   0.1043   0.1196
  0.1259   0.1288   0.1306   0.1347   0.1538   0.1604   0.1674   0.1689
  0.1806   0.1952   0.2069   0.2080   0.2211   0.2258   0.2337   0.2381
  0.2382   0.2555   0.2564   0.2590   0.2658   0.2715   0.2729   0.2851
  0.2880   0.2982   0.3008   0.3079   0.3102   0.3138   0.3278   0.3333
  0.3392   0.3455   0.3648   0.3712   0.3841   0.3942   0.3974   0.4113
  0.4278   0.4557   0.4636   0.4874   0.5276   0.5494   0.6106   0.6688
  0.7049   0.7775   0.7784   0.8031   0.8120   0.8250   0.8389   0.8416
  0.8419   0.8568   0.8602   0.8806   0.8961   0.8989   0.9203   0.9561
  0.9993   1.0089   1.0198   1.0457   1.0534   1.0606   1.0688   1.0941
  1.1026   1.1367   1.1566   1.1734   1.1970   1.2177   1.2223   1.2742
  1.2849   1.3103   1.3287   1.3433   1.3505   1.4205   1.4303   1.4493
  1.4711   1.5099   1.5162   1.5431   1.5700   1.5791   1.6027   1.6043
  1.6412   1.6948   1.7493   1.8954   1.9333   1.9868   1.9965   2.0140
  2.0346   2.0957   2.1018   2.1125   2.1506   2.1599   2.2296   2.2444
  2.2558   2.3007   2.3361   2.3441   2.3690   2.3713   2.4067   2.4737
  2.5155   2.5475   2.6449   2.6562   2.7292   2.7377   2.7552   2.7855
  2.8232   2.8978   2.9371   2.9461   3.0674   3.0740   3.2021   3.3350
  3.4916   4.2577   4.3605   4.4099   4.4419   4.4785   4.5152   4.5958
  4.6367   4.8862
 --------------------------------------------------------------
 
          Ground-State Mulliken Net Atomic Charges

     Atom                 Charge (a.u.)
  ----------------------------------------
      1 C                    -0.074802
      2 C                    -0.394532
      3 C                    -0.141156
      4 C                    -0.631346
      5 C                     0.802605
      6 C                    -0.529075
      7 N                    -0.560121
      8 C                     0.098744
      9 C                    -0.239652
     10 H                     0.429493
     11 H                     0.216003
     12 H                     0.218913
     13 H                     0.199303
     14 H                     0.204209
     15 H                     0.193444
     16 H                     0.207970
  ----------------------------------------
  Sum of atomic charges =     0.000000

 -----------------------------------------------------------------
                    Cartesian Multipole Moments
 -----------------------------------------------------------------
    Charge (ESU x 10^10)
                -0.0000
    Dipole Moment (Debye)
         X      -1.6025      Y       1.5180      Z       0.0006
       Tot       2.2073
    Quadrupole Moments (Debye-Ang)
        XX     -44.8528     XY      -2.9786     YY     -43.9265
        XZ      -0.0014     YZ       0.0020     ZZ     -59.1915
    Octopole Moments (Debye-Ang^2)
       XXX     -15.8298    XXY       8.4889    XYY      -7.6994
       YYY      10.1647    XXZ       0.0008    XYZ      -0.0037
       YYZ       0.0035    XZZ      -2.3722    YZZ       2.0196
       ZZZ      -0.0025
    Hexadecapole Moments (Debye-Ang^3)
      XXXX    -811.5044   XXXY     -22.2055   XXYY    -198.1780
      XYYY     -21.8357   YYYY    -373.7048   XXXZ       0.0034
      XXYZ       0.0060   XYYZ      -0.0063   YYYZ       0.0046
      XXZZ    -191.2153   XYZZ      -4.7438   YYZZ     -95.7886
      XZZZ       0.0075   YZZZ      -0.0044   ZZZZ     -73.0015
 -----------------------------------------------------------------
 Calculating analytic gradient of the CIS energy
 CIS relaxed dipole moment
            1
    1  -0.7206949
    2   0.4776020
    3   0.0002104
	Magnitude:	 0.865 au	 2.198 Debye
 CIS 1 State Energy is -363.5360950380
 Gradient of the state energy (including CIS Excitation Energy)
            1           2           3           4           5           6
    1   0.0000183  -0.0000733  -0.0003285   0.0001915  -0.0002584  -0.0000818
    2  -0.0000459  -0.0000647   0.0001515   0.0005562  -0.0004655  -0.0001299
    3  -0.0000003  -0.0000006  -0.0000007   0.0000025  -0.0000059   0.0000003
            7           8           9          10          11          12
    1  -0.0002938   0.0004788   0.0002594   0.0000474  -0.0000700   0.0000205
    2  -0.0006307  -0.0000722   0.0008029   0.0000288  -0.0000136  -0.0001408
    3  -0.0000030   0.0000102  -0.0000080   0.0000062   0.0000010  -0.0000021
           13          14          15          16
    1   0.0000117   0.0000811   0.0000054  -0.0000081
    2  -0.0000446  -0.0000671   0.0000750   0.0000606
    3   0.0000001   0.0000002  -0.0000001   0.0000003
 Gradient time:  CPU 49.29 s  wall 12.40 s
 Geometry Optimization Parameters
   NAtoms,    NIC,     NZ,  NCons,   NDum,   NFix, NCnnct, MaxDiis
       16     116       0       0       0       0       0       0

 Cartesian Hessian Update
 Hessian updated using BFGS update


** GEOMETRY OPTIMIZATION IN DELOCALIZED INTERNAL COORDINATES **
   Searching for a Minimum

   Optimization Cycle:   4

                       Coordinates (Angstroms)
     ATOM                X               Y               Z
      1  C         2.1615473525   -0.6865903720   -0.0000429998
      2  C         2.1520531757    0.7361462369    0.0000022432
      3  C         0.9338465590    1.4559300933    0.0000507822
      4  C        -0.2495441396    0.6836090840    0.0000352391
      5  C        -0.2601492878   -0.7752563529   -0.0000201592
      6  C         0.9696834385   -1.4620596836   -0.0000465765
      7  N        -1.5500886256    1.0740238012    0.0000176670
      8  C        -1.6365684570   -1.1737554987    0.0000657941
      9  C        -2.4066489854   -0.0405420811    0.0000307520
     10  H        -1.8615011095    2.0333249566    0.0004925211
     11  H        -2.0106819575   -2.1897812795    0.0000518582
     12  H        -3.4793682892    0.0909936090   -0.0000422769
     13  H         3.0965996758    1.2710492129   -0.0000008186
     14  H         0.9104921959    2.5414345602    0.0000508753
     15  H         3.1198315644   -1.1993570056   -0.0000704594
     16  H         1.0135918410   -2.5466167880   -0.0000484606
   Point Group: c1    Number of degrees of freedom:    42


   Energy is   -363.536095038

 Hessian updated using BFGS update

 40 Hessian modes will be used to form the next step
  Hessian Eigenvalues:
     0.018592    0.019738    0.020011    0.020794    0.021686    0.022201
     0.022636    0.023004    0.023236    0.023608    0.023851    0.023984
     0.024128    0.127464    0.160000    0.160007    0.160129    0.161222
     0.201307    0.222872    0.228580    0.241514    0.244303    0.348724
     0.357160    0.357717    0.358641    0.360051    0.364755    0.366291
     0.372587    0.388234    0.426561    0.444440    0.462621    0.471630
     0.475099    0.477161    0.494399    0.544036

 Minimum search - taking simple RFO step
 Searching for Lamda that Minimizes Along All modes
 Value Taken    Lamda =  -0.00000295
 Step Taken.  Stepsize is  0.003616

                             Maximum     Tolerance    Cnvgd?
         Gradient           0.000341      0.000300      NO
         Displacement       0.001256      0.001200      NO
         Energy change     -0.000031      0.000001      NO


 New Cartesian Coordinates Obtained by Inverse Iteration

 Displacement from previous Coordinates is:  0.004005
 ----------------------------------------------------------------
             Standard Nuclear Orientation (Angstroms)
    I     Atom           X                Y                Z
 ----------------------------------------------------------------
    1      C       2.1617414383    -0.6863051438    -0.0000137535
    2      C       2.1525704812     0.7362411457     0.0000207721
    3      C       0.9341368782     1.4554950974     0.0000332905
    4      C      -0.2495940404     0.6831990882     0.0000184156
    5      C      -0.2602286587    -0.7751744303    -0.0000242945
    6      C       0.9698007473    -1.4616750637    -0.0000444756
    7      N      -1.5498700922     1.0740092153     0.0000058879
    8      C      -1.6371088776    -1.1738124969    -0.0000070507
    9      C      -2.4073237133    -0.0410029716     0.0001348501
   10      H      -1.8613660331     2.0332845854     0.0003707438
   11      H      -2.0105819052    -2.1900174933    -0.0000707412
   12      H      -3.4798980774     0.0918786723     0.0001418285
   13      H       3.0969631774     1.2714155193     0.0000265554
   14      H       0.9100072073     2.5410629795     0.0000205063
   15      H       3.1197125919    -1.1997677037    -0.0000246730
   16      H       1.0141338275    -2.5462785071    -0.0000618808
 ----------------------------------------------------------------
 Molecular Point Group                 C1    NOp =  1
 Largest Abelian Subgroup              C1    NOp =  1
 Nuclear Repulsion Energy =         397.17479028 hartrees
 There are       31 alpha and       31 beta electrons
 Applying Cartesian multipole field
    Component          Value
    ---------          -----
     (2,0,0)        1.00000E-11
     (0,2,0)        2.00000E-11
     (0,0,2)       -3.00000E-11
 Nucleus-field energy     =     0.0000000119 hartrees
 Requested basis set is 6-31+G(d)
 There are 59 shells and 185 basis functions
 A cutoff of  1.0D-12 yielded   1656 shell pairs
 There are     17099 function pairs
 Smallest overlap matrix eigenvalue = 1.45E-06
 Guess MOs from SCF MO coefficient file

 -----------------------------------------------------------------------
  General SCF calculation program by
  Eric Jon Sundstrom, Paul Horn, Yuezhi Mao, Dmitri Zuev, Alec White,
  David Stuck, Shaama M.S., Shane Yost, Joonho Lee, David Small,
  Daniel Levine, Susi Lehtola, Hugh Burton, Evgeny Epifanovsky,
  Bang C. Huynh
 -----------------------------------------------------------------------
 Exchange:     0.1577 Hartree-Fock + 1.0000 wB97X + LR-HF
 Correlation:  1.0000 wB97X
 Using SG-2 standard quadrature grid
 using 4 threads for integral computing
 -------------------------------------------------------
 OpenMP Integral computing Module                
 Release: version 1.0, May 2013, Q-Chem Inc. Pittsburgh 
 -------------------------------------------------------
 using 4 threads for integral computing
 -------------------------------------------------------
 OpenMP Integral computing Module                
 Release: version 1.0, May 2013, Q-Chem Inc. Pittsburgh 
 -------------------------------------------------------
 A restricted SCF calculation will be
 performed using DIIS
 SCF converges when DIIS error is below 1.0e-08
 ---------------------------------------
  Cycle       Energy         DIIS error
 ---------------------------------------
    1    -363.7197923426      1.65e-05  
    2    -363.7197935331      2.74e-06  
    3    -363.7197935953      1.57e-06  
    4    -363.7197936071      5.18e-07  
    5    -363.7197936101      1.98e-07  
    6    -363.7197936105      1.04e-07  
    7    -363.7197936106      3.08e-08  
    8    -363.7197936107      1.20e-08  
    9    -363.7197936107      4.96e-09  Convergence criterion met
 ---------------------------------------
 SCF time:   CPU 53.57s  wall 13.00s 
 SCF   energy in the final basis set =     -363.7197936107
 Total energy in the final basis set =     -363.7197936107
 
 Direct TDDFT/TDA calculation will be performed
 Exchange:     0.1577 Hartree-Fock + 1.0000 wB97X + LR-HF
 Correlation:  1.0000 wB97X
 Using SG-2 standard quadrature grid
 Singlet excitation energies requested
 CIS energy converged when residual is below 10e- 6
 ---------------------------------------------------
 Iter    Rts Conv    Rts Left    Ttl Dev     Max Dev
 ---------------------------------------------------
   1         0           3      0.003801    0.001699
   2         0           3      0.001172    0.000525
   3         0           3      0.000751    0.000335
   4         0           3      0.000428    0.000173
   5         0           3      0.000169    0.000065
   6         0           3      0.000078    0.000027
   7         0           3      0.000040    0.000019
   8         0           3      0.000022    0.000013
   9         0           3      0.000011    0.000008
  10         2           1      0.000007    0.000005
  11         2           1      0.000005    0.000004
  12         2           1      0.000003    0.000002
  13         2           1      0.000002    0.000001
  14         3           0      0.000002    0.000001    Roots Converged
 ---------------------------------------------------
 
 ---------------------------------------------------
         TDDFT/TDA Excitation Energies              
 ---------------------------------------------------

 Excited state   1: excitation energy (eV) =    4.9986
 Total energy for state  1:                  -363.53609700 au
    Multiplicity: Singlet
    Trans. Mom.:  0.5113 X   0.4444 Y  -0.0000 Z
    Strength   :     0.0562023991
    D(   30) --> V(    1) amplitude =  0.7868
    D(   31) --> V(    1) amplitude = -0.2650
    D(   31) --> V(    5) amplitude = -0.4789

 Excited state   2: excitation energy (eV) =    5.3213
 Total energy for state  2:                  -363.52423973 au
    Multiplicity: Singlet
    Trans. Mom.:  0.6964 X  -0.6718 Y  -0.0001 Z
    Strength   :     0.1220581586
    D(   30) --> V(    1) amplitude =  0.2233
    D(   30) --> V(    5) amplitude =  0.3694
    D(   31) --> V(    1) amplitude =  0.8545

 Excited state   3: excitation energy (eV) =    6.0441
 Total energy for state  3:                  -363.49767630 au
    Multiplicity: Singlet
    Trans. Mom.: -0.0000 X   0.0000 Y  -0.1686 Z
    Strength   :     0.0042085010
    D(   31) --> V(    2) amplitude =  0.9096
 
 ---------------------------------------------------
 Calculating Relaxed Density
 ---------------------------------------------------
 Iter    Rts Conv    Rts Left    Ttl Dev     Max Dev
 ---------------------------------------------------
   1         0           3      0.000789    0.000361
   2         0           3      0.000343    0.000173
   3         0           3      0.000134    0.000060
   4         0           3      0.000046    0.000023
   5         0           3      0.000020    0.000011
   6         0           3      0.000006    0.000003
   7         3           0      0.000000    0.000000    Roots Converged
 ---------------------------------------------------
  SETman timing summary (seconds)
  CPU time               326.27s
  System time              0.00s
  Wall time               82.09s
 
 --------------------------------------------------------------
 
                    Orbital Energies (a.u.)
 --------------------------------------------------------------
 
 Alpha MOs
 -- Occupied --
-14.4633 -10.3129 -10.3118 -10.2819 -10.2786 -10.2784 -10.2766 -10.2711
-10.2666  -1.1138  -0.9635  -0.9156  -0.8582  -0.8465  -0.7475  -0.7150
 -0.7001  -0.6535  -0.6014  -0.5814  -0.5429  -0.5391  -0.5382  -0.5177
 -0.4996  -0.4565  -0.4393  -0.4387  -0.3838  -0.3054  -0.2947
 -- Virtual --
  0.0521   0.0664   0.0839   0.0878   0.0945   0.1007   0.1043   0.1196
  0.1259   0.1288   0.1306   0.1347   0.1538   0.1604   0.1674   0.1689
  0.1806   0.1952   0.2069   0.2080   0.2211   0.2258   0.2337   0.2381
  0.2382   0.2555   0.2564   0.2590   0.2658   0.2714   0.2729   0.2851
  0.2880   0.2982   0.3007   0.3079   0.3103   0.3138   0.3279   0.3332
  0.3391   0.3455   0.3648   0.3712   0.3841   0.3942   0.3974   0.4113
  0.4278   0.4558   0.4635   0.4874   0.5275   0.5495   0.6106   0.6689
  0.7051   0.7775   0.7783   0.8031   0.8120   0.8250   0.8387   0.8416
  0.8418   0.8567   0.8602   0.8806   0.8961   0.8990   0.9202   0.9561
  0.9993   1.0090   1.0198   1.0457   1.0534   1.0605   1.0688   1.0941
  1.1026   1.1366   1.1566   1.1735   1.1970   1.2176   1.2223   1.2742
  1.2849   1.3103   1.3286   1.3433   1.3506   1.4204   1.4304   1.4493
  1.4711   1.5101   1.5161   1.5432   1.5700   1.5790   1.6028   1.6043
  1.6412   1.6950   1.7490   1.8955   1.9333   1.9864   1.9965   2.0143
  2.0347   2.0956   2.1016   2.1123   2.1503   2.1600   2.2291   2.2443
  2.2558   2.3008   2.3362   2.3441   2.3687   2.3714   2.4067   2.4735
  2.5152   2.5472   2.6450   2.6560   2.7292   2.7378   2.7553   2.7855
  2.8233   2.8976   2.9371   2.9463   3.0671   3.0740   3.2015   3.3351
  3.4917   4.2574   4.3605   4.4097   4.4421   4.4784   4.5151   4.5958
  4.6367   4.8863
 --------------------------------------------------------------
 
          Ground-State Mulliken Net Atomic Charges

     Atom                 Charge (a.u.)
  ----------------------------------------
      1 C                    -0.074124
      2 C                    -0.395129
      3 C                    -0.140376
      4 C                    -0.633445
      5 C                     0.805066
      6 C                    -0.529721
      7 N                    -0.560516
      8 C                     0.098117
      9 C                    -0.239184
     10 H                     0.429437
     11 H                     0.216019
     12 H                     0.218965
     13 H                     0.199402
     14 H                     0.204119
     15 H                     0.193427
     16 H                     0.207942
  ----------------------------------------
  Sum of atomic charges =     0.000000

 -----------------------------------------------------------------
                    Cartesian Multipole Moments
 -----------------------------------------------------------------
    Charge (ESU x 10^10)
                -0.0000
    Dipole Moment (Debye)
         X      -1.6018      Y       1.5155      Z       0.0005
       Tot       2.2051
    Quadrupole Moments (Debye-Ang)
        XX     -44.8476     XY      -2.9761     YY     -43.9305
        XZ      -0.0014     YZ       0.0018     ZZ     -59.1920
    Octopole Moments (Debye-Ang^2)
       XXX     -15.8371    XXY       8.4994    XYY      -7.6945
       YYY      10.1532    XXZ       0.0020    XYZ      -0.0033
       YYZ       0.0014    XZZ      -2.3683    YZZ       2.0191
       ZZZ      -0.0032
    Hexadecapole Moments (Debye-Ang^3)
      XXXX    -811.6668   XXXY     -22.2495   XXYY    -198.2010
      XYYY     -21.8748   YYYY    -373.6543   XXXZ      -0.0008
      XXYZ       0.0052   XYYZ      -0.0031   YYYZ       0.0032
      XXZZ    -191.2653   XYZZ      -4.7518   YYZZ     -95.7725
      XZZZ       0.0078   YZZZ      -0.0048   ZZZZ     -72.9998
 -----------------------------------------------------------------
 Calculating analytic gradient of the CIS energy
 CIS relaxed dipole moment
            1
    1  -0.7208331
    2   0.4760210
    3   0.0001476
	Magnitude:	 0.864 au	 2.196 Debye
 CIS 1 State Energy is -363.5360969976
 Gradient of the state energy (including CIS Excitation Energy)
            1           2           3           4           5           6
    1  -0.0000334  -0.0000681  -0.0000560   0.0000117  -0.0000612  -0.0000042
    2   0.0000237  -0.0000489   0.0000326   0.0002592  -0.0002591  -0.0000223
    3   0.0000005   0.0000003  -0.0000008   0.0000028   0.0000053  -0.0000006
            7           8           9          10          11          12
    1  -0.0000328   0.0001955  -0.0000169   0.0000119  -0.0000247   0.0000016
    2  -0.0002413   0.0000287   0.0002447   0.0000101   0.0000161  -0.0000405
    3  -0.0000124  -0.0000068   0.0000111   0.0000027  -0.0000016  -0.0000002
           13          14          15          16
    1   0.0000125   0.0000330   0.0000114   0.0000195
    2  -0.0000230  -0.0000239   0.0000219   0.0000219
    3  -0.0000002  -0.0000001   0.0000000  -0.0000000
 Gradient time:  CPU 49.30 s  wall 12.40 s
 Geometry Optimization Parameters
   NAtoms,    NIC,     NZ,  NCons,   NDum,   NFix, NCnnct, MaxDiis
       16     116       0       0       0       0       0       0

 Cartesian Hessian Update
 Hessian updated using BFGS update


** GEOMETRY OPTIMIZATION IN DELOCALIZED INTERNAL COORDINATES **
   Searching for a Minimum

   Optimization Cycle:   5

                       Coordinates (Angstroms)
     ATOM                X               Y               Z
      1  C         2.1617414383   -0.6863051438   -0.0000137535
      2  C         2.1525704812    0.7362411457    0.0000207721
      3  C         0.9341368782    1.4554950974    0.0000332905
      4  C        -0.2495940404    0.6831990882    0.0000184156
      5  C        -0.2602286587   -0.7751744303   -0.0000242945
      6  C         0.9698007473   -1.4616750637   -0.0000444756
      7  N        -1.5498700922    1.0740092153    0.0000058879
      8  C        -1.6371088776   -1.1738124969   -0.0000070507
      9  C        -2.4073237133   -0.0410029716    0.0001348501
     10  H        -1.8613660331    2.0332845854    0.0003707438
     11  H        -2.0105819052   -2.1900174933   -0.0000707412
     12  H        -3.4798980774    0.0918786723    0.0001418285
     13  H         3.0969631774    1.2714155193    0.0000265554
     14  H         0.9100072073    2.5410629795    0.0000205063
     15  H         3.1197125919   -1.1997677037   -0.0000246730
     16  H         1.0141338275   -2.5462785071   -0.0000618808
   Point Group: c1    Number of degrees of freedom:    42


   Energy is   -363.536096998

 Hessian updated using BFGS update

 41 Hessian modes will be used to form the next step
  Hessian Eigenvalues:
     0.018583    0.019740    0.020014    0.020794    0.021742    0.022217
     0.022636    0.023006    0.023236    0.023608    0.023851    0.023984
     0.024129    0.117958    0.155195    0.160000    0.160006    0.160051
     0.160218    0.203238    0.215365    0.228888    0.243364    0.243902
     0.310814    0.355810    0.357164    0.357941    0.358905    0.363022
     0.365227    0.370975    0.383570    0.426615    0.443956    0.455690
     0.467131    0.471677    0.475751    0.490020    0.531324

 Minimum search - taking simple RFO step
 Searching for Lamda that Minimizes Along All modes
 Value Taken    Lamda =  -0.00000058
 Step Taken.  Stepsize is  0.001881

                             Maximum     Tolerance    Cnvgd?
         Gradient           0.000141      0.000300     YES
         Displacement       0.000649      0.001200     YES
         Energy change     -0.000002      0.000001      NO

 Final energy is   -363.536096997581     


 ******************************
 **  OPTIMIZATION CONVERGED  **
 ******************************

                       Coordinates (Angstroms)
     ATOM                X               Y               Z
      1  C         2.1617414383   -0.6863051438   -0.0000137535
      2  C         2.1525704812    0.7362411457    0.0000207721
      3  C         0.9341368782    1.4554950974    0.0000332905
      4  C        -0.2495940404    0.6831990882    0.0000184156
      5  C        -0.2602286587   -0.7751744303   -0.0000242945
      6  C         0.9698007473   -1.4616750637   -0.0000444756
      7  N        -1.5498700922    1.0740092153    0.0000058879
      8  C        -1.6371088776   -1.1738124969   -0.0000070507
      9  C        -2.4073237133   -0.0410029716    0.0001348501
     10  H        -1.8613660331    2.0332845854    0.0003707438
     11  H        -2.0105819052   -2.1900174933   -0.0000707412
     12  H        -3.4798980774    0.0918786723    0.0001418285
     13  H         3.0969631774    1.2714155193    0.0000265554
     14  H         0.9100072073    2.5410629795    0.0000205063
     15  H         3.1197125919   -1.1997677037   -0.0000246730
     16  H         1.0141338275   -2.5462785071   -0.0000618808

Z-matrix Print:
$molecule
0 1
C 
N  1 1.357737
H  2 1.008583 1 124.718292
C  2 1.406584 1 110.831941 3 -179.968596 0
H  4 1.080774 2 120.498174 1 -180.000000 0
C  4 1.369850 2 108.227022 1 -0.010543 0
H  6 1.082661 4 125.608347 2 -179.992620 0
C  1 1.413386 2 130.149912 3 -0.025240 0
H  8 1.085836 1 121.848103 2 -0.000986 0
C  8 1.414888 1 116.324761 2 -179.998953 0
H  10 1.085490 8 119.906575 1 180.000000 0
C  10 1.422576 8 120.923166 1 0.000000 0
H  12 1.086900 10 118.560218 8 180.000000 0
C  12 1.421943 10 122.675052 8 0.000000 0
H  14 1.085509 12 120.703767 10 -180.000000 0
C  14 1.408636 12 117.788936 10 -0.000000 0
$end

 
 --------------------------------------------------------------
 
                    Orbital Energies (a.u.)
 --------------------------------------------------------------
 
 Alpha MOs
 -- Occupied --
-14.4633 -10.3129 -10.3118 -10.2819 -10.2786 -10.2784 -10.2766 -10.2711
-10.2666  -1.1138  -0.9635  -0.9156  -0.8582  -0.8465  -0.7475  -0.7150
 -0.7001  -0.6535  -0.6014  -0.5814  -0.5429  -0.5391  -0.5382  -0.5177
 -0.4996  -0.4565  -0.4393  -0.4387  -0.3838  -0.3054  -0.2947
 -- Virtual --
  0.0521   0.0664   0.0839   0.0878   0.0945   0.1007   0.1043   0.1196
  0.1259   0.1288   0.1306   0.1347   0.1538   0.1604   0.1674   0.1689
  0.1806   0.1952   0.2069   0.2080   0.2211   0.2258   0.2337   0.2381
  0.2382   0.2555   0.2564   0.2590   0.2658   0.2714   0.2729   0.2851
  0.2880   0.2982   0.3007   0.3079   0.3103   0.3138   0.3279   0.3332
  0.3391   0.3455   0.3648   0.3712   0.3841   0.3942   0.3974   0.4113
  0.4278   0.4558   0.4635   0.4874   0.5275   0.5495   0.6106   0.6689
  0.7051   0.7775   0.7783   0.8031   0.8120   0.8250   0.8387   0.8416
  0.8418   0.8567   0.8602   0.8806   0.8961   0.8990   0.9202   0.9561
  0.9993   1.0090   1.0198   1.0457   1.0534   1.0605   1.0688   1.0941
  1.1026   1.1366   1.1566   1.1735   1.1970   1.2176   1.2223   1.2742
  1.2849   1.3103   1.3286   1.3433   1.3506   1.4204   1.4304   1.4493
  1.4711   1.5101   1.5161   1.5432   1.5700   1.5790   1.6028   1.6043
  1.6412   1.6950   1.7490   1.8955   1.9333   1.9864   1.9965   2.0143
  2.0347   2.0956   2.1016   2.1123   2.1503   2.1600   2.2291   2.2443
  2.2558   2.3008   2.3362   2.3441   2.3687   2.3714   2.4067   2.4735
  2.5152   2.5472   2.6450   2.6560   2.7292   2.7378   2.7553   2.7855
  2.8233   2.8976   2.9371   2.9463   3.0671   3.0740   3.2015   3.3351
  3.4917   4.2574   4.3605   4.4097   4.4421   4.4784   4.5151   4.5958
  4.6367   4.8863
 --------------------------------------------------------------
 
          Ground-State Mulliken Net Atomic Charges

     Atom                 Charge (a.u.)
  ----------------------------------------
      1 C                    -0.074124
      2 C                    -0.395129
      3 C                    -0.140376
      4 C                    -0.633445
      5 C                     0.805066
      6 C                    -0.529721
      7 N                    -0.560516
      8 C                     0.098117
      9 C                    -0.239184
     10 H                     0.429437
     11 H                     0.216019
     12 H                     0.218965
     13 H                     0.199402
     14 H                     0.204119
     15 H                     0.193427
     16 H                     0.207942
  ----------------------------------------
  Sum of atomic charges =     0.000000

 -----------------------------------------------------------------
                    Cartesian Multipole Moments
 -----------------------------------------------------------------
    Charge (ESU x 10^10)
                -0.0000
    Dipole Moment (Debye)
         X      -1.6018      Y       1.5155      Z       0.0005
       Tot       2.2051
    Quadrupole Moments (Debye-Ang)
        XX     -44.8476     XY      -2.9761     YY     -43.9305
        XZ      -0.0014     YZ       0.0018     ZZ     -59.1920
    Octopole Moments (Debye-Ang^2)
       XXX     -15.8371    XXY       8.4994    XYY      -7.6945
       YYY      10.1532    XXZ       0.0020    XYZ      -0.0033
       YYZ       0.0014    XZZ      -2.3683    YZZ       2.0191
       ZZZ      -0.0032
    Hexadecapole Moments (Debye-Ang^3)
      XXXX    -811.6668   XXXY     -22.2495   XXYY    -198.2010
      XYYY     -21.8748   YYYY    -373.6543   XXXZ      -0.0008
      XXYZ       0.0052   XYYZ      -0.0031   YYYZ       0.0032
      XXZZ    -191.2653   XYZZ      -4.7518   YYZZ     -95.7725
      XZZZ       0.0078   YZZZ      -0.0048   ZZZZ     -72.9998
 -----------------------------------------------------------------
Archival summary:
1\1\exp-2-52\OPT\ProcedureUnspecified\6-31+G*\187\scaparas\WedJun2314:01:402021WedJun2314:01:402021\0\\#,OPT,ProcedureUnspecified,6-31+G*,\\0,1\C\N,1,1.35774\H,2,1.00858,1,124.718\C,2,1.40658,1,110.832,3,-179.969,0\H,4,1.08077,2,120.498,1,-180,0\C,4,1.36985,2,108.227,1,-0.0105431,0\H,6,1.08266,4,125.608,2,-179.993,0\C,1,1.41339,2,130.15,3,-0.0252396,0\H,8,1.08584,1,121.848,2,-0.00098574,0\C,8,1.41489,1,116.325,2,-179.999,0\H,10,1.08549,8,119.907,1,180,0\C,10,1.42258,8,120.923,1,0,0\H,12,1.0869,10,118.56,8,180,0\C,12,1.42194,10,122.675,8,0,0\H,14,1.08551,12,120.704,10,-180,0\C,14,1.40864,12,117.789,10,-0,0\\\@

 Total job time:  551.29s(wall), 2189.49s(cpu) 
 Wed Jun 23 14:01:40 2021

        *************************************************************
        *                                                           *
        *  Thank you very much for using Q-Chem.  Have a nice day.  *
        *                                                           *
        *************************************************************


