
Running Job 1 of 1 QfuncsHSE-HJS-V-2nd.in
qchem QfuncsHSE-HJS-V-2nd.in_110718.0 /scratch/scaparas/job_3624040/qchem110718/ 0
/cm/shared/apps/spack/cpu/opt/spack/linux-centos8-zen2/gcc-10.2.0/qchem-5.3-5qddma6gy34jvefiv7mbcb7qm253n45r/exe/qcprog.exe_s QfuncsHSE-HJS-V-2nd.in_110718.0 /scratch/scaparas/job_3624040/qchem110718/
                  Welcome to Q-Chem
     A Quantum Leap Into The Future Of Chemistry


 Q-Chem 5.3, Q-Chem, Inc., Pleasanton, CA (2020)

 License issued to: University of California, San Diego (site)

 Yihan Shao,  Zhengting Gan,  E. Epifanovsky,  A. T. B. Gilbert,  M. Wormit,  
 J. Kussmann,  A. W. Lange,  A. Behn,  Jia Deng,  Xintian Feng,  D. Ghosh,  
 M. Goldey,  P. R. Horn,  L. D. Jacobson,  I. Kaliman,  T. Kus,  A. Landau,  
 Jie Liu,  E. I. Proynov,  R. M. Richard,  R. P. Steele,  E. J. Sundstrom,  
 H. L. Woodcock III,  P. M. Zimmerman,  D. Zuev,  B. Alam,  B. Albrecht,  
 A. Aldossary,  E. Alguire,  S. A. Baeppler,  D. Barton,  Z. Benda,  
 Y. A. Bernard,  E. J. Berquist,  K. B. Bravaya,  H. Burton,  K. Carter-Fenk,  
 D. Casanova,  Chun-Min Chang,  Yunqing Chen,  A. Chien,  K. D. Closser,  
 M. P. Coons,  S. Coriani,  S. Dasgupta,  A. L. Dempwolff,  M. Diedenhofen,  
 Hainam Do,  R. G. Edgar,  Po-Tung Fang,  S. Faraji,  S. Fatehi,  
 Qingguo Feng,  J. Fosso-Tande,  J. Gayvert,  Qinghui Ge,  A. Ghysels,  
 G. Gidofalvi,  J. Gomes,  J. Gonthier,  S. Gulania,  A. Gunina,  D. Hait,  
 M. W. D. Hanson-Heine,  S. Hammes-Schiffer,  P. H. P. Harbach,  
 A. W. Hauser,  M. F. Herbst,  J. E. Herr,  E. G. Hohenstein,  Z. C. Holden,  
 S. Houck,  Kerwin Hui,  B. C. Huynh,  M. Ivanov,  T.-C. Jagau,  Hyunjun Ji,  
 B. Kaduk,  K. Khistyaev,  Jaehoon Kim,  P. Klunzinger,  K. Koh,  
 D. Kosenkov,  L. Koulias,  T. Kowalczyk,  C. M. Krauter,  A. Kunitsa,  
 Ka Un Lao,  A. Laurent,  K. V. Lawler,  Joonho Lee,  D. Lefrancois,  
 S. Lehtola,  D. S. Levine,  Yi-Pei Li,  You-Sheng Lin,  Fenglai Liu,  
 Kuan-Yu Liu,  E. Livshits,  M. Loipersberger,  A. Luenser,  P. Manohar,  
 E. Mansoor,  S. F. Manzer,  Shan-Ping Mao,  Yuezhi Mao,  N. Mardirossian,  
 A. V. Marenich,  T. Markovich,  L. A. Martinez-Martinez,  S. A. Maurer,  
 N. J. Mayhall,  S. C. McKenzie,  J.-M. Mewes,  P. Morgante,  A. F. Morrison,  
 J. W. Mullinax,  K. Nanda,  T. S. Nguyen-Beck,  R. Olivares-Amaya,  
 K. J. Oosterbaan,  J. A. Parkhill,  S. K. Paul,  F. Pavosevic,  Zheng Pei,  
 T. M. Perrine,  F. Plasser,  P. Pokhilko,  S. Prager,  A. Prociuk,  
 E. Ramos,  B. Rana,  D. R. Rehn,  F. Rob,  E. Rossomme,  M. Scheurer,  
 M. Schneider,  N. Sergueev,  S. M. Sharada,  S. Sharma,  W. Skomorowski,  
 D. W. Small,  T. Stauch,  C. J. Stein,  T. Stein,  Yu-Chuan Su,  
 S. P. Veccham,  Zhen Tao,  A. J. W. Thom,  A. Tkatchenko,  T. Tsuchimochi,  
 N. M. Tubman,  L. Vogt,  M. L. Vidal,  O. Vydrov,  M. A. Watson,  J. Wenzel,  
 M. de Wergifosse,  T. A. Wesolowski,  A. White,  J. Witte,  A. Yamada,  
 Jun Yang,  K. Yao,  S. Yeganeh,  S. R. Yost,  Zhi-Qiang You,  A. Zech,  
 Igor Ying Zhang,  Xing Zhang,  Yan Zhao,  Ying Zhu,  B. R. Brooks,  
 G. K. L. Chan,  C. J. Cramer,  M. S. Gordon,  W. J. Hehre,  A. Klamt,  
 M. W. Schmidt,  C. D. Sherrill,  D. G. Truhlar,  A. Aspuru-Guzik,  R. Baer,  
 A. T. Bell,  N. A. Besley,  Jeng-Da Chai,  A. E. DePrince, III,  
 R. A. DiStasio Jr.,  A. Dreuw,  B. D. Dunietz,  T. R. Furlani,  
 Chao-Ping Hsu,  Yousung Jung,  Jing Kong,  D. S. Lambrecht,  WanZhen Liang,  
 C. Ochsenfeld,  V. A. Rassolov,  L. V. Slipchenko,  J. E. Subotnik,  
 T. Van Voorhis,  J. M. Herbert,  A. I. Krylov,  P. M. W. Gill,  M. Head-Gordon

 Contributors to earlier versions of Q-Chem not listed above: 
 R. D. Adamson,  B. Austin,  J. Baker,  G. J. O. Beran,  K. Brandhorst,  
 S. T. Brown,  E. F. C. Byrd,  A. K. Chakraborty,  C.-L. Cheng,  
 Siu Hung Chien,  D. M. Chipman,  D. L. Crittenden,  H. Dachsel,  
 R. J. Doerksen,  A. D. Dutoi,  L. Fusti-Molnar,  W. A. Goddard III,  
 A. Golubeva-Zadorozhnaya,  S. R. Gwaltney,  G. Hawkins,  A. Heyden,  
 S. Hirata,  G. Kedziora,  F. J. Keil,  C. Kelley,  Jihan Kim,  R. A. King,  
 R. Z. Khaliullin,  P. P. Korambath,  W. Kurlancheek,  A. M. Lee,  M. S. Lee,  
 S. V. Levchenko,  Ching Yeh Lin,  D. Liotard,  R. C. Lochan,  I. Lotan,  
 P. E. Maslen,  N. Nair,  D. P. O'Neill,  D. Neuhauser,  E. Neuscamman,  
 C. M. Oana,  R. Olson,  B. Peters,  R. Peverati,  P. A. Pieniazek,  
 Y. M. Rhee,  J. Ritchie,  M. A. Rohrdanz,  E. Rosta,  N. J. Russ,  
 H. F. Schaefer III,  N. E. Schultz,  N. Shenvi,  A. C. Simmonett,  A. Sodt,  
 D. Stuck,  K. S. Thanthiriwatte,  V. Vanovschi,  Tao Wang,  A. Warshel,  
 C. F. Williams,  Q. Wu,  X. Xu,  W. Zhang

 Please cite Q-Chem as follows:
 Y. Shao et al., Mol. Phys. 113, 184-215 (2015)
 DOI: 10.1080/00268976.2014.952696

 Q-Chem 5.3.1 for Intel X86 EM64T Linux

 Parts of Q-Chem use Armadillo 9.800.1 (Horizon Scraper).
 http://arma.sourceforge.net/

 Q-Chem begins on Fri Jun 25 07:29:30 2021  

Host: 
0

     Scratch files written to /scratch/scaparas/job_3624040/qchem110718//
 Aug2920 |scratch|qcdevops|jenkins|workspace|build_RNUM    
Processing $rem in /cm/shared/apps/spack/cpu/opt/spack/linux-centos8-zen2/gcc-10.2.0/qchem-5.3-5qddma6gy34jvefiv7mbcb7qm253n45r/config/preferences:
Processing $rem in /home/scaparas/.qchemrc:

Checking the input file for inconsistencies... 	...done.

--------------------------------------------------------------
User input:
--------------------------------------------------------------
$molecule
0 1
C   -2.1510630    0.6892080    0.0000880
C   -2.1279270   -0.7158180    0.0000750
C   -0.9322970   -1.4131000   -0.0000110
C    0.2469110   -0.6702010   -0.0000420
C    0.2481930    0.7482990    0.0000000
C   -0.9794740    1.4235260    0.0000320
N    1.5617740   -1.0775920   -0.0002850
C    1.6201330    1.1629000   -0.0001570
C    2.3820130    0.0308060    0.0002480
H    1.8763150   -2.0300110    0.0004380
H    1.9921730    2.1730100   -0.0003480
H    3.4525490   -0.0824250    0.0004080
H   -3.0615940   -1.2620200    0.0000880
H   -0.9172520   -2.4953420   -0.0000730
H   -3.1042030    1.2007850    0.0000900
H   -1.0093480    2.5054210   -0.0000150
$end

$rem
BASIS  =  6-31+G*
GUI  =  2
JOB_TYPE  =  Optimization
METHOD  = HSE-HJS
SCF_CONVERGENCE  =  8
THRESH = 12
CIS_N_ROOTS  = 3
CIS_SINGLETS = true
CIS_TRIPLETS = false
CIS_STATE_DERIV = 2
MEM_STATIC = 500
MEM_TOTAL = 3000
$end
--------------------------------------------------------------
 ----------------------------------------------------------------
             Standard Nuclear Orientation (Angstroms)
    I     Atom           X                Y                Z
 ----------------------------------------------------------------
    1      C       2.1510629040    -0.6892079969     0.0000583065
    2      C       2.1279268385     0.7158180020     0.0000481775
    3      C       0.9322968051     1.4130999466    -0.0000206639
    4      C      -0.2469111607     0.6702008918    -0.0000373513
    5      C      -0.2481930942    -0.7482991083     0.0000020775
    6      C       0.9794739374    -1.4235260513     0.0000165335
    7      N      -1.5617741827     1.0775918311    -0.0002621374
    8      C      -1.6201330769    -1.1629001718    -0.0001374500
    9      C      -2.3820131241    -0.0308062080     0.0002797387
   10      H      -1.8763152174     2.0300108152     0.0004667797
   11      H      -1.9921730325    -2.1730101887    -0.0003253498
   12      H      -3.4525491271     0.0824247420     0.0004541695
   13      H       3.0615938132     1.2620200454     0.0000497686
   14      H       0.9172517540     2.4953419460    -0.0000804893
   15      H       3.1042029277    -1.2007849526     0.0000467087
   16      H       1.0093479871    -2.5054210498    -0.0000328375
 ----------------------------------------------------------------
 Molecular Point Group                 C1    NOp =  1
 Largest Abelian Subgroup              C1    NOp =  1
 Nuclear Repulsion Energy =         401.33686680 hartrees
 There are       31 alpha and       31 beta electrons
 Requested basis set is 6-31+G(d)
 There are 59 shells and 185 basis functions

 Total QAlloc Memory Limit   3000 MB
 Mega-Array Size       489 MB
 MEM_STATIC part       500 MB
 A cutoff of  1.0D-12 yielded   1657 shell pairs
 There are     17105 function pairs
 Smallest overlap matrix eigenvalue = 1.26E-06

 Scale SEOQF with 1.000000e-01/1.000000e-01/1.000000e-01

 Standard Electronic Orientation quadrupole field applied
 Nucleus-field energy     =     0.0000000117 hartrees
 Guess from superposition of atomic densities
 Warning:  Energy on first SCF cycle will be non-variational
 SAD guess density has 62.000000 electrons

 -----------------------------------------------------------------------
  General SCF calculation program by
  Eric Jon Sundstrom, Paul Horn, Yuezhi Mao, Dmitri Zuev, Alec White,
  David Stuck, Shaama M.S., Shane Yost, Joonho Lee, David Small,
  Daniel Levine, Susi Lehtola, Hugh Burton, Evgeny Epifanovsky,
  Bang C. Huynh
 -----------------------------------------------------------------------
 Exchange:     0.2500 Hartree-Fock + 1.0000 PBE + -0.2500 wPBE + LR-HF
 Correlation:  1.0000 PBE
 Using SG-1 standard quadrature grid
 using 4 threads for integral computing
 -------------------------------------------------------
 OpenMP Integral computing Module                
 Release: version 1.0, May 2013, Q-Chem Inc. Pittsburgh 
 -------------------------------------------------------
 using 4 threads for integral computing
 -------------------------------------------------------
 OpenMP Integral computing Module                
 Release: version 1.0, May 2013, Q-Chem Inc. Pittsburgh 
 -------------------------------------------------------
 A restricted SCF calculation will be
 performed using DIIS
 SCF converges when DIIS error is below 1.0e-08
 ---------------------------------------
  Cycle       Energy         DIIS error
 ---------------------------------------
    1    -365.7856403989      5.56e-02  
    2    -363.2742167500      4.94e-03  
    3    -363.2108884892      6.10e-03  
    4    -363.3846176487      1.60e-03  
    5    -363.3958392837      4.16e-04  
    6    -363.3965446321      1.41e-04  
    7    -363.3966251016      5.20e-05  
    8    -363.3966371291      1.22e-05  
    9    -363.3966377547      1.77e-06  
   10    -363.3966377646      1.04e-06  
   11    -363.3966377694      2.23e-07  
   12    -363.3966377696      9.58e-08  
   13    -363.3966377697      1.73e-08  
   14    -363.3966377697      7.30e-09  Convergence criterion met
 ---------------------------------------
 SCF time:   CPU 63.96s  wall 16.00s 
 SCF   energy in the final basis set =     -363.3966377697
 Total energy in the final basis set =     -363.3966377697
 
 Direct TDDFT/TDA calculation will be performed
 Exchange:     0.2500 Hartree-Fock + 1.0000 PBE + -0.2500 wPBE + LR-HF
 Correlation:  1.0000 PBE
 Using SG-1 standard quadrature grid
 Singlet excitation energies requested
 CIS energy converged when residual is below 10e- 6
 ---------------------------------------------------
 Iter    Rts Conv    Rts Left    Ttl Dev     Max Dev
 ---------------------------------------------------
   1         0           3      0.003679    0.001817
   2         0           3      0.003056    0.001932
   3         0           3      0.001927    0.001648
   4         0           3      0.000992    0.000908
   5         0           3      0.000198    0.000168
   6         1           2      0.000052    0.000042
   7         1           2      0.000014    0.000012
   8         2           1      0.000003    0.000003
   9         3           0      0.000001    0.000001    Roots Converged
 ---------------------------------------------------
 
 ---------------------------------------------------
         TDDFT/TDA Excitation Energies              
 ---------------------------------------------------

 Excited state   1: excitation energy (eV) =    5.0022
 Total energy for state  1:                  -363.21280894 au
    Multiplicity: Singlet
    Trans. Mom.: -0.4571 X   0.6617 Y   0.0004 Z
    Strength   :     0.0792562562
    D(   30) --> V(    1) amplitude =  0.3369
    D(   30) --> V(    3) amplitude =  0.2450
    D(   31) --> V(    1) amplitude =  0.8549

 Excited state   2: excitation energy (eV) =    5.0633
 Total energy for state  2:                  -363.21056317 au
    Multiplicity: Singlet
    Trans. Mom.:  0.5971 X  -0.0319 Y  -0.0007 Z
    Strength   :     0.0443517088
    D(   30) --> V(    1) amplitude =  0.7081
    D(   31) --> V(    1) amplitude = -0.3226
    D(   31) --> V(    3) amplitude = -0.6031

 Excited state   3: excitation energy (eV) =    5.0881
 Total energy for state  3:                  -363.20965415 au
    Multiplicity: Singlet
    Trans. Mom.: -0.0040 X   0.0017 Y  -0.1340 Z
    Strength   :     0.0022409909
    D(   31) --> V(    2) amplitude =  0.9959
 
 ---------------------------------------------------
 Calculating Relaxed Density
 ---------------------------------------------------
 Iter    Rts Conv    Rts Left    Ttl Dev     Max Dev
 ---------------------------------------------------
   1         0           3      0.001613    0.000824
   2         0           3      0.000608    0.000273
   3         0           3      0.000131    0.000060
   4         0           3      0.000037    0.000020
   5         0           3      0.000006    0.000003
   6         3           0      0.000000    0.000000    Roots Converged
 ---------------------------------------------------
  SETman timing summary (seconds)
  CPU time               205.59s
  System time              0.00s
  Wall time               51.84s
 
 --------------------------------------------------------------
 
                    Orbital Energies (a.u.)
 --------------------------------------------------------------
 
 Alpha MOs
 -- Occupied --
-14.4360 -10.2566 -10.2548 -10.2244 -10.2206 -10.2190 -10.2189 -10.2138
-10.2116  -0.9987  -0.8525  -0.7943  -0.7456  -0.7269  -0.6311  -0.6011
 -0.5874  -0.5443  -0.4856  -0.4731  -0.4389  -0.4300  -0.4245  -0.4117
 -0.3918  -0.3541  -0.3347  -0.3333  -0.2780  -0.2210  -0.2040
 -- Virtual --
 -0.0253  -0.0051   0.0113   0.0138   0.0197   0.0352   0.0365   0.0397
  0.0558   0.0575   0.0644   0.0649   0.0822   0.0856   0.1045   0.1060
  0.1086   0.1231   0.1322   0.1358   0.1526   0.1551   0.1640   0.1647
  0.1700   0.1792   0.1846   0.1860   0.1951   0.1975   0.1991   0.2007
  0.2170   0.2222   0.2294   0.2334   0.2362   0.2443   0.2547   0.2589
  0.2695   0.2721   0.2766   0.2945   0.2995   0.3072   0.3136   0.3303
  0.3491   0.3654   0.3773   0.3983   0.4337   0.4488   0.5131   0.5814
  0.6267   0.6756   0.6769   0.7024   0.7180   0.7241   0.7320   0.7403
  0.7449   0.7566   0.7606   0.7813   0.7960   0.8033   0.8170   0.8570
  0.8972   0.9045   0.9160   0.9389   0.9464   0.9551   0.9638   0.9865
  1.0063   1.0333   1.0496   1.0666   1.0951   1.1138   1.1172   1.1718
  1.1802   1.2057   1.2251   1.2303   1.2532   1.3163   1.3196   1.3369
  1.3702   1.4109   1.4184   1.4540   1.4569   1.4639   1.4950   1.5007
  1.5407   1.5910   1.6511   1.7877   1.8464   1.8860   1.8919   1.9248
  1.9459   1.9984   2.0009   2.0059   2.0667   2.1036   2.1455   2.1751
  2.1765   2.2023   2.2506   2.2626   2.2679   2.2896   2.3187   2.3839
  2.4117   2.4512   2.5536   2.5623   2.6427   2.6644   2.6744   2.7067
  2.7432   2.8169   2.8541   2.8656   2.9622   2.9873   3.1211   3.2520
  3.4578   4.1669   4.2787   4.3085   4.3430   4.3790   4.4143   4.4977
  4.5369   4.8067
 --------------------------------------------------------------
 
          Ground-State Mulliken Net Atomic Charges

     Atom                 Charge (a.u.)
  ----------------------------------------
      1 C                     0.019864
      2 C                    -0.536727
      3 C                    -0.128162
      4 C                    -1.172316
      5 C                     1.578420
      6 C                    -0.796951
      7 N                    -0.467952
      8 C                     0.035055
      9 C                    -0.227594
     10 H                     0.436055
     11 H                     0.217814
     12 H                     0.216320
     13 H                     0.204965
     14 H                     0.206216
     15 H                     0.203539
     16 H                     0.211452
  ----------------------------------------
  Sum of atomic charges =     0.000000

 -----------------------------------------------------------------
                    Cartesian Multipole Moments
 -----------------------------------------------------------------
    Charge (ESU x 10^10)
                -0.0000
    Dipole Moment (Debye)
         X      -1.5213      Y       1.5685      Z       0.0010
       Tot       2.1850
    Quadrupole Moments (Debye-Ang)
        XX     -44.8004     XY      -3.1813     YY     -43.9622
        XZ      -0.0032     YZ       0.0033     ZZ     -58.6755
    Octopole Moments (Debye-Ang^2)
       XXX     -14.5868    XXY       8.2062    XYY      -7.9834
       YYY      10.4165    XXZ       0.0076    XYZ      -0.0067
       YYZ       0.0020    XZZ      -2.0124    YZZ       2.0014
       ZZZ      -0.0009
    Hexadecapole Moments (Debye-Ang^3)
      XXXX    -803.5636   XXXY     -21.5660   XXYY    -193.3863
      XYYY     -19.5381   YYYY    -363.6873   XXXZ      -0.0241
      XXYZ       0.0131   XYYZ      -0.0071   YYYZ       0.0143
      XXZZ    -187.7091   XYZZ      -3.9234   YYZZ     -92.7433
      XZZZ      -0.0010   YZZZ       0.0029   ZZZZ     -71.6282
 -----------------------------------------------------------------
 Calculating analytic gradient of the CIS energy
 CIS relaxed dipole moment
            1
    1  -1.0315848
    2   0.5743804
    3  -0.0018528
	Magnitude:	 1.181 au	 3.001 Debye
 CIS 2 State Energy is -363.2105631713
 Gradient of the state energy (including CIS Excitation Energy)
            1           2           3           4           5           6
    1  -0.0257568  -0.0144714   0.0053285   0.0106875   0.0167102   0.0180527
    2   0.0008801  -0.0052562  -0.0276479  -0.0064957   0.0209874   0.0294939
    3   0.0000242  -0.0000224  -0.0000103   0.0000749  -0.0000074  -0.0000369
            7           8           9          10          11          12
    1   0.0054851  -0.0317011   0.0139197   0.0018553   0.0013205   0.0039722
    2   0.0028355   0.0128343  -0.0260813  -0.0037242   0.0037715  -0.0006080
    3  -0.0000232  -0.0000159   0.0000365  -0.0000293  -0.0000053   0.0000003
           13          14          15          16
    1  -0.0028400  -0.0000274  -0.0029193   0.0003843
    2  -0.0019234  -0.0031230   0.0011432   0.0029138
    3  -0.0000033   0.0000064   0.0000083   0.0000034
 Gradient time:  CPU 46.28 s  wall 11.83 s
 Geometry Optimization Parameters
   NAtoms,    NIC,     NZ,  NCons,   NDum,   NFix, NCnnct, MaxDiis
       16     116       0       0       0       0       0       0


** GEOMETRY OPTIMIZATION IN DELOCALIZED INTERNAL COORDINATES **
   Searching for a Minimum

   Optimization Cycle:   1

                       Coordinates (Angstroms)
     ATOM                X               Y               Z
      1  C         2.1510629040   -0.6892079969    0.0000583065
      2  C         2.1279268385    0.7158180020    0.0000481775
      3  C         0.9322968051    1.4130999466   -0.0000206639
      4  C        -0.2469111607    0.6702008918   -0.0000373513
      5  C        -0.2481930942   -0.7482991083    0.0000020775
      6  C         0.9794739374   -1.4235260513    0.0000165335
      7  N        -1.5617741827    1.0775918311   -0.0002621374
      8  C        -1.6201330769   -1.1629001718   -0.0001374500
      9  C        -2.3820131241   -0.0308062080    0.0002797387
     10  H        -1.8763152174    2.0300108152    0.0004667797
     11  H        -1.9921730325   -2.1730101887   -0.0003253498
     12  H        -3.4525491271    0.0824247420    0.0004541695
     13  H         3.0615938132    1.2620200454    0.0000497686
     14  H         0.9172517540    2.4953419460   -0.0000804893
     15  H         3.1042029277   -1.2007849526    0.0000467087
     16  H         1.0093479871   -2.5054210498   -0.0000328375
   Point Group: c1    Number of degrees of freedom:    42


   Energy is   -363.210563171


 Attempting to generate delocalized internal coordinates
 Initial Hessian constructed with Jon Baker's OPTIMIZE code

 42 Hessian modes will be used to form the next step
  Hessian Eigenvalues:
     0.018594    0.019738    0.020011    0.020794    0.021683    0.022200
     0.022636    0.023004    0.023236    0.023608    0.023851    0.023984
     0.024127    0.160000    0.160000    0.160000    0.160000    0.160000
     0.160000    0.160000    0.220000    0.221879    0.226618    0.240111
     0.246509    0.357123    0.357170    0.357835    0.357899    0.364196
     0.364272    0.370088    0.384319    0.426334    0.434649    0.457693
     0.466917    0.471622    0.474685    0.475669    0.481247    0.509555

 Minimum search - taking simple RFO step
 Searching for Lamda that Minimizes Along All modes
 Value Taken    Lamda =  -0.01060846
 Step Taken.  Stepsize is  0.154451

                             Maximum     Tolerance    Cnvgd?
         Gradient           0.038649      0.000300      NO
         Displacement       0.090438      0.001200      NO
         Energy change     *********      0.000001      NO


 New Cartesian Coordinates Obtained by Inverse Iteration

 Displacement from previous Coordinates is:  0.220066
 ----------------------------------------------------------------
             Standard Nuclear Orientation (Angstroms)
    I     Atom           X                Y                Z
 ----------------------------------------------------------------
    1      C       2.1745161410    -0.7047460995    -0.0000309743
    2      C       2.1420493649     0.7273342634     0.0000612308
    3      C       0.9294264852     1.4473572240    -0.0000820485
    4      C      -0.2576185541     0.6775124370    -0.0002398541
    5      C      -0.2513370224    -0.7715185300     0.0000266397
    6      C       0.9796426187    -1.4710128983     0.0001837968
    7      N      -1.5788463037     1.0888200826    -0.0001616758
    8      C      -1.6119959551    -1.1681924565    -0.0001095238
    9      C      -2.3975375848    -0.0159675993    -0.0000121997
   10      H      -1.8970145927     2.0447957709     0.0009795185
   11      H      -1.9875040712    -2.1830357719    -0.0001610663
   12      H      -3.4738883348     0.0961535671     0.0001158722
   13      H       3.0796606936     1.2765279120     0.0000943203
   14      H       0.9118844822     2.5340565218    -0.0001357185
   15      H       3.1369533957    -1.2083262669    -0.0001650328
   16      H       1.0047041888    -2.5572056638     0.0001626969
 ----------------------------------------------------------------
 Molecular Point Group                 C1    NOp =  1
 Largest Abelian Subgroup              C1    NOp =  1
 Nuclear Repulsion Energy =         396.98553887 hartrees
 There are       31 alpha and       31 beta electrons
 Applying Cartesian multipole field
    Component          Value
    ---------          -----
     (2,0,0)        1.00000E-11
     (0,2,0)        2.00000E-11
     (0,0,2)       -3.00000E-11
 Nucleus-field energy     =     0.0000000120 hartrees
 Requested basis set is 6-31+G(d)
 There are 59 shells and 185 basis functions
 A cutoff of  1.0D-12 yielded   1656 shell pairs
 There are     17099 function pairs
 Smallest overlap matrix eigenvalue = 1.44E-06
 Guess MOs from SCF MO coefficient file

 -----------------------------------------------------------------------
  General SCF calculation program by
  Eric Jon Sundstrom, Paul Horn, Yuezhi Mao, Dmitri Zuev, Alec White,
  David Stuck, Shaama M.S., Shane Yost, Joonho Lee, David Small,
  Daniel Levine, Susi Lehtola, Hugh Burton, Evgeny Epifanovsky,
  Bang C. Huynh
 -----------------------------------------------------------------------
 Exchange:     0.2500 Hartree-Fock + 1.0000 PBE + -0.2500 wPBE + LR-HF
 Correlation:  1.0000 PBE
 Using SG-1 standard quadrature grid
 using 4 threads for integral computing
 -------------------------------------------------------
 OpenMP Integral computing Module                
 Release: version 1.0, May 2013, Q-Chem Inc. Pittsburgh 
 -------------------------------------------------------
 using 4 threads for integral computing
 -------------------------------------------------------
 OpenMP Integral computing Module                
 Release: version 1.0, May 2013, Q-Chem Inc. Pittsburgh 
 -------------------------------------------------------
 A restricted SCF calculation will be
 performed using DIIS
 SCF converges when DIIS error is below 1.0e-08
 ---------------------------------------
  Cycle       Energy         DIIS error
 ---------------------------------------
    1    -363.3891763478      8.79e-04  
    2    -363.3924360700      2.76e-04  
    3    -363.3924708369      2.60e-04  
    4    -363.3927555737      7.15e-05  
    5    -363.3927785461      1.72e-05  
    6    -363.3927797214      8.24e-06  
    7    -363.3927800490      1.19e-06  
    8    -363.3927800518      8.54e-07  
    9    -363.3927800554      1.52e-07  
   10    -363.3927800555      7.99e-08  
   11    -363.3927800555      1.21e-08  
   12    -363.3927800555      6.76e-09  Convergence criterion met
 ---------------------------------------
 SCF time:   CPU 55.78s  wall 14.00s 
 SCF   energy in the final basis set =     -363.3927800555
 Total energy in the final basis set =     -363.3927800555
 
 Direct TDDFT/TDA calculation will be performed
 Exchange:     0.2500 Hartree-Fock + 1.0000 PBE + -0.2500 wPBE + LR-HF
 Correlation:  1.0000 PBE
 Using SG-1 standard quadrature grid
 Singlet excitation energies requested
 CIS energy converged when residual is below 10e- 6
 ---------------------------------------------------
 Iter    Rts Conv    Rts Left    Ttl Dev     Max Dev
 ---------------------------------------------------
   1         0           3      0.003714    0.001853
   2         0           3      0.003304    0.001943
   3         0           3      0.001855    0.001597
   4         0           3      0.001203    0.001085
   5         0           3      0.000277    0.000214
   6         1           2      0.000066    0.000048
   7         1           2      0.000022    0.000016
   8         1           2      0.000005    0.000003
   9         3           0      0.000001    0.000001    Roots Converged
 ---------------------------------------------------
 
 ---------------------------------------------------
         TDDFT/TDA Excitation Energies              
 ---------------------------------------------------

 Excited state   1: excitation energy (eV) =    4.7936
 Total energy for state  1:                  -363.21661844 au
    Multiplicity: Singlet
    Trans. Mom.:  0.7907 X  -0.4576 Y  -0.0002 Z
    Strength   :     0.0980180869
    D(   30) --> V(    1) amplitude =  0.3018
    D(   30) --> V(    3) amplitude = -0.2443
    D(   31) --> V(    1) amplitude =  0.8041
    D(   31) --> V(    3) amplitude =  0.3867

 Excited state   2: excitation energy (eV) =    4.8574
 Total energy for state  2:                  -363.21427273 au
    Multiplicity: Singlet
    Trans. Mom.: -0.0722 X   0.5100 Y  -0.0002 Z
    Strength   :     0.0315692590
    D(   30) --> V(    1) amplitude =  0.7182
    D(   31) --> V(    1) amplitude = -0.4276
    D(   31) --> V(    3) amplitude =  0.4841

 Excited state   3: excitation energy (eV) =    4.9696
 Total energy for state  3:                  -363.21015016 au
    Multiplicity: Singlet
    Trans. Mom.:  0.0018 X  -0.0004 Y   0.1475 Z
    Strength   :     0.0026495393
    D(   31) --> V(    2) amplitude =  0.9963
 
 ---------------------------------------------------
 Calculating Relaxed Density
 ---------------------------------------------------
 Iter    Rts Conv    Rts Left    Ttl Dev     Max Dev
 ---------------------------------------------------
   1         0           3      0.001758    0.000896
   2         0           3      0.000660    0.000275
   3         0           3      0.000155    0.000068
   4         0           3      0.000040    0.000018
   5         0           3      0.000007    0.000003
   6         3           0      0.000000    0.000000    Roots Converged
 ---------------------------------------------------
  SETman timing summary (seconds)
  CPU time               210.55s
  System time              0.00s
  Wall time               53.06s
 
 --------------------------------------------------------------
 
                    Orbital Energies (a.u.)
 --------------------------------------------------------------
 
 Alpha MOs
 -- Occupied --
-14.4410 -10.2619 -10.2610 -10.2320 -10.2274 -10.2263 -10.2262 -10.2232
-10.2147  -0.9972  -0.8423  -0.7913  -0.7406  -0.7209  -0.6294  -0.6024
 -0.5828  -0.5416  -0.4875  -0.4693  -0.4374  -0.4319  -0.4219  -0.4055
 -0.3910  -0.3540  -0.3356  -0.3291  -0.2776  -0.2192  -0.2005
 -- Virtual --
 -0.0312  -0.0061   0.0051   0.0136   0.0194   0.0343   0.0359   0.0376
  0.0558   0.0575   0.0631   0.0635   0.0812   0.0852   0.1038   0.1048
  0.1081   0.1221   0.1307   0.1339   0.1504   0.1544   0.1614   0.1614
  0.1693   0.1781   0.1822   0.1834   0.1926   0.1951   0.1964   0.1975
  0.2145   0.2189   0.2279   0.2304   0.2347   0.2400   0.2514   0.2584
  0.2677   0.2701   0.2743   0.2880   0.2908   0.2997   0.3122   0.3250
  0.3392   0.3563   0.3668   0.3890   0.4226   0.4411   0.5048   0.5602
  0.5959   0.6750   0.6778   0.7015   0.7126   0.7243   0.7273   0.7373
  0.7403   0.7551   0.7566   0.7783   0.7916   0.7940   0.8115   0.8537
  0.8921   0.8981   0.9107   0.9404   0.9478   0.9546   0.9614   0.9883
  0.9962   1.0314   1.0483   1.0599   1.0892   1.1094   1.1101   1.1679
  1.1752   1.1993   1.2216   1.2315   1.2395   1.3149   1.3150   1.3381
  1.3605   1.3999   1.4061   1.4380   1.4526   1.4686   1.4882   1.4928
  1.5371   1.5806   1.6413   1.7729   1.8214   1.8848   1.8851   1.8993
  1.9166   1.9805   1.9914   2.0034   2.0395   2.0601   2.1210   2.1380
  2.1546   2.1786   2.2264   2.2379   2.2491   2.2681   2.2966   2.3635
  2.3985   2.4458   2.5269   2.5422   2.6253   2.6254   2.6448   2.6762
  2.7155   2.7896   2.8278   2.8328   2.9494   2.9679   3.0916   3.2237
  3.3829   4.1586   4.2514   4.3061   4.3274   4.3694   4.4109   4.4869
  4.5293   4.7814
 --------------------------------------------------------------
 
          Ground-State Mulliken Net Atomic Charges

     Atom                 Charge (a.u.)
  ----------------------------------------
      1 C                    -0.035868
      2 C                    -0.475617
      3 C                    -0.256948
      4 C                    -1.119259
      5 C                     1.534985
      6 C                    -0.664496
      7 N                    -0.441173
      8 C                    -0.033910
      9 C                    -0.216649
     10 H                     0.438882
     11 H                     0.217512
     12 H                     0.217894
     13 H                     0.205275
     14 H                     0.209267
     15 H                     0.204972
     16 H                     0.215134
  ----------------------------------------
  Sum of atomic charges =     0.000000

 -----------------------------------------------------------------
                    Cartesian Multipole Moments
 -----------------------------------------------------------------
    Charge (ESU x 10^10)
                -0.0000
    Dipole Moment (Debye)
         X      -1.5824      Y       1.6355      Z       0.0016
       Tot       2.2757
    Quadrupole Moments (Debye-Ang)
        XX     -44.8439     XY      -3.4543     YY     -43.6585
        XZ      -0.0045     YZ       0.0046     ZZ     -59.2141
    Octopole Moments (Debye-Ang^2)
       XXX     -15.0209    XXY       8.9035    XYY      -8.0669
       YYY      10.9123    XXZ       0.0087    XYZ      -0.0086
       YYZ       0.0099    XZZ      -2.3649    YZZ       2.1472
       ZZZ       0.0046
    Hexadecapole Moments (Debye-Ang^3)
      XXXX    -812.9843   XXXY     -22.0766   XXYY    -196.8746
      XYYY     -18.9799   YYYY    -372.9295   XXXZ      -0.0331
      XXYZ       0.0241   XYYZ      -0.0206   YYYZ       0.0250
      XXZZ    -191.6654   XYZZ      -3.3764   YYZZ     -96.0656
      XZZZ      -0.0104   YZZZ       0.0088   ZZZZ     -73.2219
 -----------------------------------------------------------------
 Calculating analytic gradient of the CIS energy
 CIS relaxed dipole moment
            1
    1  -0.9509281
    2   0.4026967
    3   0.0005394
	Magnitude:	 1.033 au	 2.625 Debye
 CIS 2 State Energy is -363.2142727324
 Gradient of the state energy (including CIS Excitation Energy)
            1           2           3           4           5           6
    1   0.0026194  -0.0155597   0.0172373  -0.0090167  -0.0073053   0.0064199
    2  -0.0156909   0.0118607   0.0048557  -0.0149730  -0.0071395  -0.0039079
    3  -0.0000152   0.0000078  -0.0000006  -0.0000364   0.0000385   0.0000187
            7           8           9          10          11          12
    1  -0.0261931   0.0137848   0.0188433  -0.0007805   0.0011272  -0.0011333
    2   0.0125604  -0.0034045   0.0146607  -0.0014386  -0.0001553   0.0008833
    3  -0.0000082  -0.0000124  -0.0000062   0.0000136  -0.0000007   0.0000051
           13          14          15          16
    1   0.0000291   0.0000041   0.0002541  -0.0003305
    2   0.0014121   0.0006943   0.0003205  -0.0005380
    3   0.0000022   0.0000025  -0.0000010  -0.0000076
 Gradient time:  CPU 46.77 s  wall 11.80 s
 Geometry Optimization Parameters
   NAtoms,    NIC,     NZ,  NCons,   NDum,   NFix, NCnnct, MaxDiis
       16     116       0       0       0       0       0       0

 Cartesian Hessian Update
 Hessian updated using BFGS update


** GEOMETRY OPTIMIZATION IN DELOCALIZED INTERNAL COORDINATES **
   Searching for a Minimum

   Optimization Cycle:   2

                       Coordinates (Angstroms)
     ATOM                X               Y               Z
      1  C         2.1745161410   -0.7047460995   -0.0000309743
      2  C         2.1420493649    0.7273342634    0.0000612308
      3  C         0.9294264852    1.4473572240   -0.0000820485
      4  C        -0.2576185541    0.6775124370   -0.0002398541
      5  C        -0.2513370224   -0.7715185300    0.0000266397
      6  C         0.9796426187   -1.4710128983    0.0001837968
      7  N        -1.5788463037    1.0888200826   -0.0001616758
      8  C        -1.6119959551   -1.1681924565   -0.0001095238
      9  C        -2.3975375848   -0.0159675993   -0.0000121997
     10  H        -1.8970145927    2.0447957709    0.0009795185
     11  H        -1.9875040712   -2.1830357719   -0.0001610663
     12  H        -3.4738883348    0.0961535671    0.0001158722
     13  H         3.0796606936    1.2765279120    0.0000943203
     14  H         0.9118844822    2.5340565218   -0.0001357185
     15  H         3.1369533957   -1.2083262669   -0.0001650328
     16  H         1.0047041888   -2.5572056638    0.0001626969
   Point Group: c1    Number of degrees of freedom:    42


   Energy is   -363.214272732

 Hessian updated using BFGS update

 40 Hessian modes will be used to form the next step
  Hessian Eigenvalues:
     0.018594    0.019738    0.020011    0.020794    0.021683    0.022200
     0.022636    0.023004    0.023236    0.023608    0.023851    0.023984
     0.024127    0.159780    0.160000    0.160000    0.160000    0.160202
     0.194840    0.220505    0.230542    0.245749    0.248404    0.355913
     0.357146    0.357455    0.357906    0.362425    0.364301    0.369520
     0.377103    0.413720    0.426907    0.443282    0.464604    0.471615
     0.472192    0.474875    0.488626    0.793312

 Minimum search - taking simple RFO step
 Searching for Lamda that Minimizes Along All modes
 Value Taken    Lamda =  -0.00351031
 Step Taken.  Stepsize is  0.100167

                             Maximum     Tolerance    Cnvgd?
         Gradient           0.019657      0.000300      NO
         Displacement       0.047637      0.001200      NO
         Energy change     -0.003710      0.000001      NO


 New Cartesian Coordinates Obtained by Inverse Iteration

 Displacement from previous Coordinates is:  0.137525
 ----------------------------------------------------------------
             Standard Nuclear Orientation (Angstroms)
    I     Atom           X                Y                Z
 ----------------------------------------------------------------
    1      C       2.1781324362    -0.6916912183    -0.0000525323
    2      C       2.1643317749     0.7359523481     0.0000484339
    3      C       0.9342955716     1.4558925269    -0.0000284934
    4      C      -0.2466099477     0.6803646729    -0.0001736887
    5      C      -0.2585660673    -0.7703239364    -0.0000269051
    6      C       0.9727024267    -1.4656218888     0.0001319596
    7      N      -1.5663351882     1.0671522181    -0.0000680803
    8      C      -1.6289375116    -1.1731397323    -0.0000228348
    9      C      -2.4217713481    -0.0246698104    -0.0000808517
   10      H      -1.8759785326     2.0282870739     0.0009855232
   11      H      -2.0064525642    -2.1892287688    -0.0000413890
   12      H      -3.4975076320     0.0950240858    -0.0000775639
   13      H       3.1072613057     1.2770165844     0.0000482084
   14      H       0.9102276573     2.5429234656    -0.0001018247
   15      H       3.1377616926    -1.2030844756    -0.0002017397
   16      H       1.0005408780    -2.5523006524     0.0001877598
 ----------------------------------------------------------------
 Molecular Point Group                 C1    NOp =  1
 Largest Abelian Subgroup              C1    NOp =  1
 Nuclear Repulsion Energy =         396.09803328 hartrees
 There are       31 alpha and       31 beta electrons
 Applying Cartesian multipole field
    Component          Value
    ---------          -----
     (2,0,0)        1.00000E-11
     (0,2,0)        2.00000E-11
     (0,0,2)       -3.00000E-11
 Nucleus-field energy     =     0.0000000120 hartrees
 Requested basis set is 6-31+G(d)
 There are 59 shells and 185 basis functions
 A cutoff of  1.0D-12 yielded   1656 shell pairs
 There are     17099 function pairs
 Smallest overlap matrix eigenvalue = 1.47E-06
 Guess MOs from SCF MO coefficient file

 -----------------------------------------------------------------------
  General SCF calculation program by
  Eric Jon Sundstrom, Paul Horn, Yuezhi Mao, Dmitri Zuev, Alec White,
  David Stuck, Shaama M.S., Shane Yost, Joonho Lee, David Small,
  Daniel Levine, Susi Lehtola, Hugh Burton, Evgeny Epifanovsky,
  Bang C. Huynh
 -----------------------------------------------------------------------
 Exchange:     0.2500 Hartree-Fock + 1.0000 PBE + -0.2500 wPBE + LR-HF
 Correlation:  1.0000 PBE
 Using SG-1 standard quadrature grid
 using 4 threads for integral computing
 -------------------------------------------------------
 OpenMP Integral computing Module                
 Release: version 1.0, May 2013, Q-Chem Inc. Pittsburgh 
 -------------------------------------------------------
 using 4 threads for integral computing
 -------------------------------------------------------
 OpenMP Integral computing Module                
 Release: version 1.0, May 2013, Q-Chem Inc. Pittsburgh 
 -------------------------------------------------------
 A restricted SCF calculation will be
 performed using DIIS
 SCF converges when DIIS error is below 1.0e-08
 ---------------------------------------
  Cycle       Energy         DIIS error
 ---------------------------------------
    1    -363.3901575453      4.14e-04  
    2    -363.3910580553      1.16e-04  
    3    -363.3910286200      1.36e-04  
    4    -363.3911074425      4.15e-05  
    5    -363.3911155950      1.07e-05  
    6    -363.3911160645      3.38e-06  
    7    -363.3911161160      9.91e-07  
    8    -363.3911161199      4.85e-07  
    9    -363.3911161211      1.09e-07  
   10    -363.3911161211      6.02e-08  
   11    -363.3911161211      1.18e-08  
   12    -363.3911161211      6.07e-09  Convergence criterion met
 ---------------------------------------
 SCF time:   CPU 55.19s  wall 14.00s 
 SCF   energy in the final basis set =     -363.3911161211
 Total energy in the final basis set =     -363.3911161211
 
 Direct TDDFT/TDA calculation will be performed
 Exchange:     0.2500 Hartree-Fock + 1.0000 PBE + -0.2500 wPBE + LR-HF
 Correlation:  1.0000 PBE
 Using SG-1 standard quadrature grid
 Singlet excitation energies requested
 CIS energy converged when residual is below 10e- 6
 ---------------------------------------------------
 Iter    Rts Conv    Rts Left    Ttl Dev     Max Dev
 ---------------------------------------------------
   1         0           3      0.003734    0.001858
   2         0           3      0.002993    0.001876
   3         0           3      0.001492    0.001169
   4         0           3      0.000347    0.000221
   5         1           2      0.000101    0.000077
   6         1           2      0.000027    0.000020
   7         1           2      0.000007    0.000005
   8         2           1      0.000002    0.000001
   9         3           0      0.000001    0.000001    Roots Converged
 ---------------------------------------------------
 
 ---------------------------------------------------
         TDDFT/TDA Excitation Energies              
 ---------------------------------------------------

 Excited state   1: excitation energy (eV) =    4.7429
 Total energy for state  1:                  -363.21681755 au
    Multiplicity: Singlet
    Trans. Mom.:  0.3407 X  -0.7255 Y   0.0000 Z
    Strength   :     0.0746466302
    D(   30) --> V(    1) amplitude = -0.4102
    D(   30) --> V(    3) amplitude = -0.2251
    D(   31) --> V(    1) amplitude =  0.8121

 Excited state   2: excitation energy (eV) =    4.8069
 Total energy for state  2:                  -363.21446623 au
    Multiplicity: Singlet
    Trans. Mom.:  0.6818 X  -0.1502 Y  -0.0002 Z
    Strength   :     0.0574000226
    D(   30) --> V(    1) amplitude =  0.6698
    D(   31) --> V(    1) amplitude =  0.4234
    D(   31) --> V(    3) amplitude =  0.5773

 Excited state   3: excitation energy (eV) =    4.9997
 Total energy for state  3:                  -363.20738012 au
    Multiplicity: Singlet
    Trans. Mom.:  0.0012 X  -0.0003 Y   0.1392 Z
    Strength   :     0.0023729384
    D(   31) --> V(    2) amplitude =  0.9962
 
 ---------------------------------------------------
 Calculating Relaxed Density
 ---------------------------------------------------
 Iter    Rts Conv    Rts Left    Ttl Dev     Max Dev
 ---------------------------------------------------
   1         0           3      0.001749    0.000884
   2         0           3      0.000645    0.000278
   3         0           3      0.000144    0.000067
   4         0           3      0.000037    0.000021
   5         0           3      0.000007    0.000003
   6         3           0      0.000000    0.000000    Roots Converged
 ---------------------------------------------------
  SETman timing summary (seconds)
  CPU time               157.87s
  System time              0.00s
  Wall time               39.72s
 
 --------------------------------------------------------------
 
                    Orbital Energies (a.u.)
 --------------------------------------------------------------
 
 Alpha MOs
 -- Occupied --
-14.4397 -10.2635 -10.2625 -10.2338 -10.2289 -10.2288 -10.2275 -10.2240
-10.2172  -0.9956  -0.8399  -0.7900  -0.7386  -0.7223  -0.6305  -0.5996
 -0.5825  -0.5393  -0.4898  -0.4698  -0.4345  -0.4290  -0.4211  -0.4066
 -0.3946  -0.3526  -0.3367  -0.3274  -0.2771  -0.2186  -0.2012
 -- Virtual --
 -0.0340  -0.0057   0.0054   0.0137   0.0191   0.0337   0.0356   0.0363
  0.0556   0.0571   0.0629   0.0632   0.0813   0.0850   0.1033   0.1043
  0.1078   0.1223   0.1303   0.1345   0.1502   0.1539   0.1607   0.1614
  0.1676   0.1779   0.1813   0.1822   0.1915   0.1942   0.1957   0.1965
  0.2138   0.2184   0.2267   0.2315   0.2346   0.2400   0.2512   0.2572
  0.2671   0.2700   0.2738   0.2864   0.2894   0.2980   0.3090   0.3240
  0.3383   0.3566   0.3660   0.3892   0.4160   0.4426   0.5030   0.5574
  0.5926   0.6733   0.6772   0.7022   0.7105   0.7246   0.7257   0.7322
  0.7399   0.7534   0.7556   0.7784   0.7888   0.7935   0.8099   0.8526
  0.8900   0.8983   0.9082   0.9412   0.9451   0.9542   0.9616   0.9856
  0.9944   1.0311   1.0488   1.0635   1.0897   1.1080   1.1100   1.1651
  1.1734   1.1996   1.2209   1.2319   1.2395   1.3106   1.3150   1.3396
  1.3600   1.3991   1.4008   1.4344   1.4593   1.4682   1.4877   1.4897
  1.5309   1.5766   1.6311   1.7844   1.8185   1.8763   1.8867   1.8990
  1.9193   1.9827   1.9863   1.9980   2.0321   2.0418   2.1160   2.1226
  2.1442   2.1894   2.2233   2.2281   2.2522   2.2566   2.2920   2.3514
  2.3957   2.4414   2.5229   2.5380   2.6191   2.6201   2.6441   2.6678
  2.7094   2.7833   2.8161   2.8344   2.9546   2.9595   3.0807   3.2228
  3.3715   4.1531   4.2463   4.3013   4.3326   4.3681   4.4098   4.4854
  4.5280   4.7764
 --------------------------------------------------------------
 
          Ground-State Mulliken Net Atomic Charges

     Atom                 Charge (a.u.)
  ----------------------------------------
      1 C                    -0.026973
      2 C                    -0.468847
      3 C                    -0.206139
      4 C                    -1.088811
      5 C                     1.483869
      6 C                    -0.739023
      7 N                    -0.449967
      8 C                    -0.004581
      9 C                    -0.211468
     10 H                     0.435613
     11 H                     0.217946
     12 H                     0.221978
     13 H                     0.207904
     14 H                     0.209582
     15 H                     0.203992
     16 H                     0.214925
  ----------------------------------------
  Sum of atomic charges =     0.000000

 -----------------------------------------------------------------
                    Cartesian Multipole Moments
 -----------------------------------------------------------------
    Charge (ESU x 10^10)
                 0.0000
    Dipole Moment (Debye)
         X      -1.6023      Y       1.5936      Z       0.0014
       Tot       2.2599
    Quadrupole Moments (Debye-Ang)
        XX     -44.5352     XY      -3.1667     YY     -43.8868
        XZ      -0.0037     YZ       0.0039     ZZ     -59.3176
    Octopole Moments (Debye-Ang^2)
       XXX     -15.9039    XXY       8.6966    XYY      -7.6546
       YYY      10.4168    XXZ       0.0050    XYZ      -0.0078
       YYZ       0.0098    XZZ      -2.4017    YZZ       2.1238
       ZZZ       0.0032
    Hexadecapole Moments (Debye-Ang^3)
      XXXX    -813.9886   XXXY     -22.7171   XXYY    -199.2665
      XYYY     -20.8278   YYYY    -373.7368   XXXZ      -0.0216
      XXYZ       0.0198   XYYZ      -0.0193   YYYZ       0.0175
      XXZZ    -193.6121   XYZZ      -4.6553   YYZZ     -96.1514
      XZZZ      -0.0068   YZZZ       0.0042   ZZZZ     -73.5321
 -----------------------------------------------------------------
 Calculating analytic gradient of the CIS energy
 CIS relaxed dipole moment
            1
    1  -1.1620234
    2   0.6113952
    3  -0.0001642
	Magnitude:	 1.313 au	 3.337 Debye
 CIS 2 State Energy is -363.2144662303
 Gradient of the state energy (including CIS Excitation Energy)
            1           2           3           4           5           6
    1   0.0026547   0.0153239  -0.0087172  -0.0000545   0.0041500  -0.0054557
    2   0.0035371   0.0018500  -0.0009401   0.0157796   0.0000041  -0.0004568
    3  -0.0000039   0.0000060  -0.0000029  -0.0000130  -0.0000050   0.0000042
            7           8           9          10          11          12
    1   0.0239734  -0.0150611  -0.0161547   0.0005088  -0.0006699  -0.0012898
    2  -0.0038112   0.0024094  -0.0171416   0.0012624  -0.0009366  -0.0007150
    3   0.0000112   0.0000164  -0.0000233   0.0000112   0.0000016  -0.0000026
           13          14          15          16
    1   0.0011560  -0.0003254   0.0009553  -0.0009937
    2  -0.0002228   0.0012250  -0.0004711  -0.0013724
    3  -0.0000023   0.0000014  -0.0000011   0.0000021
 Gradient time:  CPU 35.23 s  wall 8.86 s
 Geometry Optimization Parameters
   NAtoms,    NIC,     NZ,  NCons,   NDum,   NFix, NCnnct, MaxDiis
       16     116       0       0       0       0       0       0

 Cartesian Hessian Update
 Hessian updated using BFGS update


** GEOMETRY OPTIMIZATION IN DELOCALIZED INTERNAL COORDINATES **
   Searching for a Minimum

   Optimization Cycle:   3

                       Coordinates (Angstroms)
     ATOM                X               Y               Z
      1  C         2.1781324362   -0.6916912183   -0.0000525323
      2  C         2.1643317749    0.7359523481    0.0000484339
      3  C         0.9342955716    1.4558925269   -0.0000284934
      4  C        -0.2466099477    0.6803646729   -0.0001736887
      5  C        -0.2585660673   -0.7703239364   -0.0000269051
      6  C         0.9727024267   -1.4656218888    0.0001319596
      7  N        -1.5663351882    1.0671522181   -0.0000680803
      8  C        -1.6289375116   -1.1731397323   -0.0000228348
      9  C        -2.4217713481   -0.0246698104   -0.0000808517
     10  H        -1.8759785326    2.0282870739    0.0009855232
     11  H        -2.0064525642   -2.1892287688   -0.0000413890
     12  H        -3.4975076320    0.0950240858   -0.0000775639
     13  H         3.1072613057    1.2770165844    0.0000482084
     14  H         0.9102276573    2.5429234656   -0.0001018247
     15  H         3.1377616926   -1.2030844756   -0.0002017397
     16  H         1.0005408780   -2.5523006524    0.0001877598
   Point Group: c1    Number of degrees of freedom:    42


   Energy is   -363.214466230

 Hessian updated using BFGS update

 41 Hessian modes will be used to form the next step
  Hessian Eigenvalues:
     0.018594    0.019738    0.020011    0.020794    0.021683    0.022200
     0.022636    0.023004    0.023236    0.023608    0.023851    0.023984
     0.024127    0.159470    0.160000    0.160000    0.160000    0.160011
     0.160498    0.211399    0.220885    0.231397    0.246356    0.290043
     0.357143    0.357279    0.357818    0.357980    0.363951    0.364348
     0.370224    0.404219    0.426307    0.430261    0.440230    0.466854
     0.470913    0.471965    0.479898    0.486285    1.050972

 Minimum search - taking simple RFO step
 Searching for Lamda that Minimizes Along All modes
 Value Taken    Lamda =  -0.00180505
 Step Taken.  Stepsize is  0.054019

                             Maximum     Tolerance    Cnvgd?
         Gradient           0.018873      0.000300      NO
         Displacement       0.024517      0.001200      NO
         Energy change     -0.000193      0.000001      NO


 New Cartesian Coordinates Obtained by Inverse Iteration

 Displacement from previous Coordinates is:  0.086695
 ----------------------------------------------------------------
             Standard Nuclear Orientation (Angstroms)
    I     Atom           X                Y                Z
 ----------------------------------------------------------------
    1      C       2.1711323379    -0.6940165299    -0.0000254614
    2      C       2.1478645910     0.7271909053     0.0000774485
    3      C       0.9283413386     1.4477896040     0.0000008308
    4      C      -0.2494296866     0.6760594092    -0.0001279796
    5      C      -0.2531614376    -0.7685213077    -0.0000528094
    6      C       0.9752884326    -1.4641568738     0.0000585848
    7      N      -1.5689150517     1.0737397493    -0.0001495449
    8      C      -1.6172729178    -1.1684193745    -0.0000387936
    9      C      -2.4076445234    -0.0190541894     0.0000698605
   10      H      -1.8810011447     2.0329370385     0.0007160130
   11      H      -1.9951702277    -2.1827285914    -0.0000855652
   12      H      -3.4818184135     0.0985304281     0.0001313852
   13      H       3.0879221759     1.2704243657     0.0001079531
   14      H       0.9081402016     2.5332837763    -0.0000928819
   15      H       3.1312780319    -1.2014387861    -0.0001434697
   16      H       1.0075412447    -2.5490671310     0.0000804110
 ----------------------------------------------------------------
 Molecular Point Group                 C1    NOp =  1
 Largest Abelian Subgroup              C1    NOp =  1
 Nuclear Repulsion Energy =         397.43882786 hartrees
 There are       31 alpha and       31 beta electrons
 Applying Cartesian multipole field
    Component          Value
    ---------          -----
     (2,0,0)        1.00000E-11
     (0,2,0)        2.00000E-11
     (0,0,2)       -3.00000E-11
 Nucleus-field energy     =     0.0000000119 hartrees
 Requested basis set is 6-31+G(d)
 There are 59 shells and 185 basis functions
 A cutoff of  1.0D-12 yielded   1656 shell pairs
 There are     17099 function pairs
 Smallest overlap matrix eigenvalue = 1.41E-06
 Guess MOs from SCF MO coefficient file

 -----------------------------------------------------------------------
  General SCF calculation program by
  Eric Jon Sundstrom, Paul Horn, Yuezhi Mao, Dmitri Zuev, Alec White,
  David Stuck, Shaama M.S., Shane Yost, Joonho Lee, David Small,
  Daniel Levine, Susi Lehtola, Hugh Burton, Evgeny Epifanovsky,
  Bang C. Huynh
 -----------------------------------------------------------------------
 Exchange:     0.2500 Hartree-Fock + 1.0000 PBE + -0.2500 wPBE + LR-HF
 Correlation:  1.0000 PBE
 Using SG-1 standard quadrature grid
 using 4 threads for integral computing
 -------------------------------------------------------
 OpenMP Integral computing Module                
 Release: version 1.0, May 2013, Q-Chem Inc. Pittsburgh 
 -------------------------------------------------------
 using 4 threads for integral computing
 -------------------------------------------------------
 OpenMP Integral computing Module                
 Release: version 1.0, May 2013, Q-Chem Inc. Pittsburgh 
 -------------------------------------------------------
 A restricted SCF calculation will be
 performed using DIIS
 SCF converges when DIIS error is below 1.0e-08
 ---------------------------------------
  Cycle       Energy         DIIS error
 ---------------------------------------
    1    -363.3929986088      2.36e-04  
    2    -363.3932501033      7.74e-05  
    3    -363.3932529400      7.09e-05  
    4    -363.3932739934      2.58e-05  
    5    -363.3932772095      5.03e-06  
    6    -363.3932773102      1.96e-06  
    7    -363.3932773263      3.24e-07  
    8    -363.3932773267      1.64e-07  
    9    -363.3932773268      4.41e-08  
   10    -363.3932773268      2.07e-08  
   11    -363.3932773268      3.31e-09  Convergence criterion met
 ---------------------------------------
 SCF time:   CPU 39.11s  wall 10.00s 
 SCF   energy in the final basis set =     -363.3932773268
 Total energy in the final basis set =     -363.3932773268
 
 Direct TDDFT/TDA calculation will be performed
 Exchange:     0.2500 Hartree-Fock + 1.0000 PBE + -0.2500 wPBE + LR-HF
 Correlation:  1.0000 PBE
 Using SG-1 standard quadrature grid
 Singlet excitation energies requested
 CIS energy converged when residual is below 10e- 6
 ---------------------------------------------------
 Iter    Rts Conv    Rts Left    Ttl Dev     Max Dev
 ---------------------------------------------------
   1         0           3      0.003725    0.001859
   2         0           3      0.003068    0.001905
   3         0           3      0.001931    0.001664
   4         0           3      0.000690    0.000576
   5         1           2      0.000178    0.000149
   6         1           2      0.000040    0.000033
   7         1           2      0.000013    0.000011
   8         2           1      0.000003    0.000002
   9         3           0      0.000001    0.000001    Roots Converged
 ---------------------------------------------------
 
 ---------------------------------------------------
         TDDFT/TDA Excitation Energies              
 ---------------------------------------------------

 Excited state   1: excitation energy (eV) =    4.7817
 Total energy for state  1:                  -363.21755431 au
    Multiplicity: Singlet
    Trans. Mom.: -0.6664 X   0.6970 Y   0.0002 Z
    Strength   :     0.1089372347
    D(   30) --> V(    3) amplitude =  0.2475
    D(   31) --> V(    1) amplitude =  0.9147

 Excited state   2: excitation energy (eV) =    4.8448
 Total energy for state  2:                  -363.21523281 au
    Multiplicity: Singlet
    Trans. Mom.:  0.4027 X   0.1902 Y  -0.0002 Z
    Strength   :     0.0235414056
    D(   30) --> V(    1) amplitude =  0.7762
    D(   31) --> V(    3) amplitude = -0.6108

 Excited state   3: excitation energy (eV) =    4.9729
 Total energy for state  3:                  -363.21052716 au
    Multiplicity: Singlet
    Trans. Mom.: -0.0012 X   0.0004 Y  -0.1434 Z
    Strength   :     0.0025051726
    D(   31) --> V(    2) amplitude =  0.9963
 
 ---------------------------------------------------
 Calculating Relaxed Density
 ---------------------------------------------------
 Iter    Rts Conv    Rts Left    Ttl Dev     Max Dev
 ---------------------------------------------------
   1         0           3      0.001710    0.000949
   2         0           3      0.000618    0.000301
   3         0           3      0.000169    0.000091
   4         0           3      0.000044    0.000028
   5         1           2      0.000007    0.000004
   6         2           1      0.000001    0.000001
   7         3           0      0.000000    0.000000    Roots Converged
 ---------------------------------------------------
  SETman timing summary (seconds)
  CPU time               159.32s
  System time              0.00s
  Wall time               40.07s
 
 --------------------------------------------------------------
 
                    Orbital Energies (a.u.)
 --------------------------------------------------------------
 
 Alpha MOs
 -- Occupied --
-14.4396 -10.2616 -10.2608 -10.2318 -10.2268 -10.2261 -10.2257 -10.2219
-10.2151  -0.9976  -0.8431  -0.7910  -0.7409  -0.7221  -0.6309  -0.6010
 -0.5832  -0.5411  -0.4884  -0.4704  -0.4359  -0.4312  -0.4224  -0.4063
 -0.3932  -0.3527  -0.3366  -0.3293  -0.2773  -0.2197  -0.2004
 -- Virtual --
 -0.0323  -0.0059   0.0068   0.0137   0.0194   0.0342   0.0359   0.0373
  0.0556   0.0573   0.0633   0.0636   0.0814   0.0850   0.1036   0.1048
  0.1081   0.1225   0.1306   0.1343   0.1508   0.1542   0.1618   0.1621
  0.1689   0.1783   0.1826   0.1831   0.1929   0.1948   0.1967   0.1975
  0.2147   0.2194   0.2278   0.2312   0.2348   0.2408   0.2517   0.2581
  0.2680   0.2703   0.2746   0.2890   0.2920   0.2998   0.3113   0.3258
  0.3407   0.3575   0.3681   0.3905   0.4210   0.4443   0.5058   0.5628
  0.5986   0.6736   0.6774   0.7020   0.7130   0.7245   0.7289   0.7351
  0.7399   0.7559   0.7564   0.7786   0.7915   0.7942   0.8115   0.8539
  0.8918   0.8986   0.9102   0.9412   0.9466   0.9545   0.9619   0.9873
  0.9968   1.0313   1.0491   1.0623   1.0897   1.1106   1.1111   1.1680
  1.1756   1.2012   1.2220   1.2313   1.2409   1.3145   1.3150   1.3388
  1.3619   1.4016   1.4028   1.4376   1.4581   1.4678   1.4889   1.4912
  1.5365   1.5810   1.6368   1.7826   1.8230   1.8835   1.8884   1.9047
  1.9215   1.9870   1.9909   2.0025   2.0399   2.0556   2.1259   2.1367
  2.1520   2.1889   2.2322   2.2338   2.2557   2.2639   2.2991   2.3619
  2.3996   2.4473   2.5293   2.5453   2.6240   2.6311   2.6474   2.6752
  2.7174   2.7914   2.8274   2.8381   2.9572   2.9669   3.0913   3.2299
  3.3904   4.1578   4.2546   4.3043   4.3318   4.3709   4.4116   4.4883
  4.5302   4.7836
 --------------------------------------------------------------
 
          Ground-State Mulliken Net Atomic Charges

     Atom                 Charge (a.u.)
  ----------------------------------------
      1 C                    -0.026969
      2 C                    -0.473095
      3 C                    -0.229528
      4 C                    -1.110360
      5 C                     1.525542
      6 C                    -0.715136
      7 N                    -0.447122
      8 C                    -0.019574
      9 C                    -0.212329
     10 H                     0.436702
     11 H                     0.217296
     12 H                     0.220028
     13 H                     0.206140
     14 H                     0.209433
     15 H                     0.204063
     16 H                     0.214908
  ----------------------------------------
  Sum of atomic charges =     0.000000

 -----------------------------------------------------------------
                    Cartesian Multipole Moments
 -----------------------------------------------------------------
    Charge (ESU x 10^10)
                -0.0000
    Dipole Moment (Debye)
         X      -1.5824      Y       1.6233      Z       0.0012
       Tot       2.2670
    Quadrupole Moments (Debye-Ang)
        XX     -44.6986     XY      -3.3367     YY     -43.8229
        XZ      -0.0034     YZ       0.0033     ZZ     -59.1739
    Octopole Moments (Debye-Ang^2)
       XXX     -15.5103    XXY       8.7534    XYY      -7.7381
       YYY      10.6988    XXZ       0.0058    XYZ      -0.0064
       YYZ       0.0064    XZZ      -2.2994    YZZ       2.1529
       ZZZ       0.0015
    Hexadecapole Moments (Debye-Ang^3)
      XXXX    -810.4807   XXXY     -22.3861   XXYY    -197.4714
      XYYY     -19.8340   YYYY    -371.6327   XXXZ      -0.0215
      XXYZ       0.0160   XYYZ      -0.0141   YYYZ       0.0128
      XXZZ    -191.7170   XYZZ      -4.0117   YYZZ     -95.5642
      XZZZ      -0.0038   YZZZ       0.0018   ZZZZ     -73.1354
 -----------------------------------------------------------------
 Calculating analytic gradient of the CIS energy
 CIS relaxed dipole moment
            1
    1  -0.7957499
    2   0.5222773
    3   0.0002258
	Magnitude:	 0.952 au	 2.419 Debye
 CIS 2 State Energy is -363.2152328122
 Gradient of the state energy (including CIS Excitation Energy)
            1           2           3           4           5           6
    1   0.0000629   0.0028091  -0.0050472   0.0054986   0.0023633   0.0028596
    2   0.0077027  -0.0116355   0.0027825  -0.0108487   0.0109636  -0.0015522
    3  -0.0000010  -0.0000001   0.0000028   0.0000008   0.0000015   0.0000033
            7           8           9          10          11          12
    1  -0.0087167   0.0035514  -0.0022165  -0.0006668  -0.0001512  -0.0000355
    2  -0.0081941  -0.0025867   0.0127299   0.0004863   0.0000035   0.0001611
    3  -0.0000093  -0.0000038   0.0000035   0.0000046  -0.0000015   0.0000015
           13          14          15          16
    1   0.0001060  -0.0002947   0.0000381  -0.0001604
    2  -0.0001502   0.0000627   0.0002173  -0.0001422
    3  -0.0000011  -0.0000011   0.0000003  -0.0000004
 Gradient time:  CPU 35.27 s  wall 8.87 s
 Geometry Optimization Parameters
   NAtoms,    NIC,     NZ,  NCons,   NDum,   NFix, NCnnct, MaxDiis
       16     116       0       0       0       0       0       0

 Cartesian Hessian Update
 Hessian updated using BFGS update


** GEOMETRY OPTIMIZATION IN DELOCALIZED INTERNAL COORDINATES **
   Searching for a Minimum

   Optimization Cycle:   4

                       Coordinates (Angstroms)
     ATOM                X               Y               Z
      1  C         2.1711323379   -0.6940165299   -0.0000254614
      2  C         2.1478645910    0.7271909053    0.0000774485
      3  C         0.9283413386    1.4477896040    0.0000008308
      4  C        -0.2494296866    0.6760594092   -0.0001279796
      5  C        -0.2531614376   -0.7685213077   -0.0000528094
      6  C         0.9752884326   -1.4641568738    0.0000585848
      7  N        -1.5689150517    1.0737397493   -0.0001495449
      8  C        -1.6172729178   -1.1684193745   -0.0000387936
      9  C        -2.4076445234   -0.0190541894    0.0000698605
     10  H        -1.8810011447    2.0329370385    0.0007160130
     11  H        -1.9951702277   -2.1827285914   -0.0000855652
     12  H        -3.4818184135    0.0985304281    0.0001313852
     13  H         3.0879221759    1.2704243657    0.0001079531
     14  H         0.9081402016    2.5332837763   -0.0000928819
     15  H         3.1312780319   -1.2014387861   -0.0001434697
     16  H         1.0075412447   -2.5490671310    0.0000804110
   Point Group: c1    Number of degrees of freedom:    42


   Energy is   -363.215232812

 Hessian updated using BFGS update

 41 Hessian modes will be used to form the next step
  Hessian Eigenvalues:
     0.018594    0.019738    0.020011    0.020794    0.021683    0.022200
     0.022636    0.023004    0.023236    0.023608    0.023851    0.023984
     0.024127    0.158899    0.159637    0.160000    0.160000    0.160019
     0.160512    0.186550    0.221431    0.228713    0.246360    0.275371
     0.348863    0.357146    0.357475    0.357866    0.361127    0.364050
     0.369757    0.373241    0.418874    0.427105    0.444215    0.458360
     0.471716    0.472646    0.485169    0.605077    1.363897

 Minimum search - taking simple RFO step
 Searching for Lamda that Minimizes Along All modes
 Value Taken    Lamda =  -0.00071745
 Step Taken.  Stepsize is  0.046347

                             Maximum     Tolerance    Cnvgd?
         Gradient           0.006829      0.000300      NO
         Displacement       0.020931      0.001200      NO
         Energy change     -0.000767      0.000001      NO


 New Cartesian Coordinates Obtained by Inverse Iteration

 Displacement from previous Coordinates is:  0.062816
 ----------------------------------------------------------------
             Standard Nuclear Orientation (Angstroms)
    I     Atom           X                Y                Z
 ----------------------------------------------------------------
    1      C       2.1631281047    -0.6967318793    -0.0000283443
    2      C       2.1401045545     0.7308641940     0.0000905961
    3      C       0.9291938669     1.4485844347     0.0000053433
    4      C      -0.2509642018     0.6806086984    -0.0001023819
    5      C      -0.2560584154    -0.7719994444    -0.0000571193
    6      C       0.9701927030    -1.4642934154     0.0000024559
    7      N      -1.5651665118     1.0825049933    -0.0001596538
    8      C      -1.6140592657    -1.1729197785    -0.0000032448
    9      C      -2.3939949882    -0.0236036148     0.0001151955
   10      H      -1.8789901437     2.0398719318     0.0005796805
   11      H      -1.9925707042    -2.1861910412    -0.0000381270
   12      H      -3.4677108581     0.0912129199     0.0001613426
   13      H       3.0789909345     1.2749522415     0.0001607989
   14      H       0.9135590872     2.5334312350    -0.0000684387
   15      H       3.1219971828    -1.2054587642    -0.0001368513
   16      H       1.0054436067    -2.5482802181     0.0000047294
 ----------------------------------------------------------------
 Molecular Point Group                 C1    NOp =  1
 Largest Abelian Subgroup              C1    NOp =  1
 Nuclear Repulsion Energy =         397.81095369 hartrees
 There are       31 alpha and       31 beta electrons
 Applying Cartesian multipole field
    Component          Value
    ---------          -----
     (2,0,0)        1.00000E-11
     (0,2,0)        2.00000E-11
     (0,0,2)       -3.00000E-11
 Nucleus-field energy     =     0.0000000119 hartrees
 Requested basis set is 6-31+G(d)
 There are 59 shells and 185 basis functions
 A cutoff of  1.0D-12 yielded   1656 shell pairs
 There are     17099 function pairs
 Smallest overlap matrix eigenvalue = 1.41E-06
 Guess MOs from SCF MO coefficient file

 -----------------------------------------------------------------------
  General SCF calculation program by
  Eric Jon Sundstrom, Paul Horn, Yuezhi Mao, Dmitri Zuev, Alec White,
  David Stuck, Shaama M.S., Shane Yost, Joonho Lee, David Small,
  Daniel Levine, Susi Lehtola, Hugh Burton, Evgeny Epifanovsky,
  Bang C. Huynh
 -----------------------------------------------------------------------
 Exchange:     0.2500 Hartree-Fock + 1.0000 PBE + -0.2500 wPBE + LR-HF
 Correlation:  1.0000 PBE
 Using SG-1 standard quadrature grid
 using 4 threads for integral computing
 -------------------------------------------------------
 OpenMP Integral computing Module                
 Release: version 1.0, May 2013, Q-Chem Inc. Pittsburgh 
 -------------------------------------------------------
 using 4 threads for integral computing
 -------------------------------------------------------
 OpenMP Integral computing Module                
 Release: version 1.0, May 2013, Q-Chem Inc. Pittsburgh 
 -------------------------------------------------------
 A restricted SCF calculation will be
 performed using DIIS
 SCF converges when DIIS error is below 1.0e-08
 ---------------------------------------
  Cycle       Energy         DIIS error
 ---------------------------------------
    1    -363.3934730942      2.04e-04  
    2    -363.3936810609      5.77e-05  
    3    -363.3936784067      6.15e-05  
    4    -363.3936939278      1.06e-05  
    5    -363.3936943362      4.72e-06  
    6    -363.3936944218      1.32e-06  
    7    -363.3936944296      3.95e-07  
    8    -363.3936944302      1.64e-07  
    9    -363.3936944303      4.11e-08  
   10    -363.3936944304      1.94e-08  
   11    -363.3936944304      3.92e-09  Convergence criterion met
 ---------------------------------------
 SCF time:   CPU 39.11s  wall 10.00s 
 SCF   energy in the final basis set =     -363.3936944304
 Total energy in the final basis set =     -363.3936944304
 
 Direct TDDFT/TDA calculation will be performed
 Exchange:     0.2500 Hartree-Fock + 1.0000 PBE + -0.2500 wPBE + LR-HF
 Correlation:  1.0000 PBE
 Using SG-1 standard quadrature grid
 Singlet excitation energies requested
 CIS energy converged when residual is below 10e- 6
 ---------------------------------------------------
 Iter    Rts Conv    Rts Left    Ttl Dev     Max Dev
 ---------------------------------------------------
   1         0           3      0.003724    0.001857
   2         0           3      0.003309    0.001826
   3         0           3      0.001582    0.001277
   4         0           3      0.000444    0.000329
   5         1           2      0.000126    0.000103
   6         1           2      0.000030    0.000023
   7         1           2      0.000008    0.000006
   8         2           1      0.000002    0.000001
   9         3           0      0.000001    0.000001    Roots Converged
 ---------------------------------------------------
 
 ---------------------------------------------------
         TDDFT/TDA Excitation Energies              
 ---------------------------------------------------

 Excited state   1: excitation energy (eV) =    4.8469
 Total energy for state  1:                  -363.21557437 au
    Multiplicity: Singlet
    Trans. Mom.:  0.5314 X   0.0903 Y  -0.0001 Z
    Strength   :     0.0345045260
    D(   30) --> V(    1) amplitude =  0.7516
    D(   31) --> V(    3) amplitude =  0.6076

 Excited state   2: excitation energy (eV) =    4.8605
 Total energy for state  2:                  -363.21507592 au
    Multiplicity: Singlet
    Trans. Mom.: -0.5918 X   0.6916 Y   0.0002 Z
    Strength   :     0.0986584757
    D(   30) --> V(    1) amplitude =  0.2389
    D(   30) --> V(    3) amplitude = -0.2630
    D(   31) --> V(    1) amplitude =  0.8868

 Excited state   3: excitation energy (eV) =    5.0120
 Total energy for state  3:                  -363.20950630 au
    Multiplicity: Singlet
    Trans. Mom.: -0.0011 X   0.0005 Y  -0.1472 Z
    Strength   :     0.0026592063
    D(   31) --> V(    2) amplitude =  0.9963
 
 ---------------------------------------------------
 Calculating Relaxed Density
 ---------------------------------------------------
 Iter    Rts Conv    Rts Left    Ttl Dev     Max Dev
 ---------------------------------------------------
   1         0           3      0.001669    0.000896
   2         0           3      0.000601    0.000283
   3         0           3      0.000137    0.000063
   4         0           3      0.000039    0.000018
   5         0           3      0.000007    0.000003
   6         3           0      0.000000    0.000000    Roots Converged
 ---------------------------------------------------
  SETman timing summary (seconds)
  CPU time               156.04s
  System time              0.00s
  Wall time               39.24s
 
 --------------------------------------------------------------
 
                    Orbital Energies (a.u.)
 --------------------------------------------------------------
 
 Alpha MOs
 -- Occupied --
-14.4401 -10.2607 -10.2607 -10.2303 -10.2257 -10.2252 -10.2251 -10.2213
-10.2147  -0.9977  -0.8430  -0.7933  -0.7399  -0.7228  -0.6300  -0.6022
 -0.5837  -0.5413  -0.4883  -0.4693  -0.4370  -0.4320  -0.4226  -0.4068
 -0.3920  -0.3530  -0.3357  -0.3290  -0.2793  -0.2177  -0.2018
 -- Virtual --
 -0.0306  -0.0059   0.0062   0.0138   0.0193   0.0344   0.0359   0.0379
  0.0557   0.0575   0.0634   0.0637   0.0812   0.0853   0.1040   0.1049
  0.1084   0.1224   0.1309   0.1341   0.1510   0.1546   0.1619   0.1621
  0.1690   0.1788   0.1829   0.1835   0.1927   0.1950   0.1966   0.1979
  0.2148   0.2202   0.2279   0.2311   0.2353   0.2405   0.2524   0.2582
  0.2679   0.2700   0.2753   0.2892   0.2926   0.3011   0.3119   0.3258
  0.3398   0.3588   0.3702   0.3912   0.4239   0.4438   0.5064   0.5626
  0.5988   0.6744   0.6776   0.7020   0.7117   0.7239   0.7302   0.7375
  0.7404   0.7564   0.7565   0.7789   0.7932   0.7946   0.8134   0.8543
  0.8927   0.8991   0.9128   0.9402   0.9472   0.9551   0.9618   0.9881
  0.9975   1.0317   1.0494   1.0617   1.0898   1.1100   1.1113   1.1683
  1.1775   1.2005   1.2225   1.2315   1.2408   1.3156   1.3158   1.3378
  1.3632   1.4031   1.4059   1.4379   1.4533   1.4686   1.4896   1.4933
  1.5356   1.5834   1.6433   1.7784   1.8247   1.8874   1.8887   1.9054
  1.9200   1.9854   1.9939   2.0063   2.0443   2.0617   2.1268   2.1400
  2.1531   2.1840   2.2287   2.2391   2.2531   2.2690   2.3017   2.3658
  2.4058   2.4483   2.5328   2.5468   2.6262   2.6326   2.6482   2.6792
  2.7180   2.7947   2.8325   2.8366   2.9571   2.9709   3.0996   3.2293
  3.3940   4.1580   4.2562   4.3076   4.3313   4.3723   4.4116   4.4892
  4.5308   4.7843
 --------------------------------------------------------------
 
          Ground-State Mulliken Net Atomic Charges

     Atom                 Charge (a.u.)
  ----------------------------------------
      1 C                    -0.026337
      2 C                    -0.479160
      3 C                    -0.224812
      4 C                    -1.098540
      5 C                     1.501675
      6 C                    -0.720897
      7 N                    -0.447059
      8 C                     0.012592
      9 C                    -0.224596
     10 H                     0.437810
     11 H                     0.218576
     12 H                     0.217947
     13 H                     0.205601
     14 H                     0.209192
     15 H                     0.203551
     16 H                     0.214457
  ----------------------------------------
  Sum of atomic charges =     0.000000

 -----------------------------------------------------------------
                    Cartesian Multipole Moments
 -----------------------------------------------------------------
    Charge (ESU x 10^10)
                -0.0000
    Dipole Moment (Debye)
         X      -1.6038      Y       1.6085      Z       0.0010
       Tot       2.2715
    Quadrupole Moments (Debye-Ang)
        XX     -44.9035     XY      -3.2573     YY     -43.6725
        XZ      -0.0028     YZ       0.0029     ZZ     -59.1254
    Octopole Moments (Debye-Ang^2)
       XXX     -15.1032    XXY       8.6036    XYY      -7.9793
       YYY      10.6837    XXZ       0.0054    XYZ      -0.0050
       YYZ       0.0050    XZZ      -2.3366    YZZ       2.1051
       ZZZ       0.0006
    Hexadecapole Moments (Debye-Ang^3)
      XXXX    -809.3294   XXXY     -22.0479   XXYY    -196.1196
      XYYY     -19.9985   YYYY    -372.4084   XXXZ      -0.0153
      XXYZ       0.0138   XYYZ      -0.0110   YYYZ       0.0103
      XXZZ    -190.5258   XYZZ      -3.9907   YYZZ     -95.7168
      XZZZ      -0.0003   YZZZ       0.0005   ZZZZ     -72.9698
 -----------------------------------------------------------------
 Calculating analytic gradient of the CIS energy
 CIS relaxed dipole moment
            1
    1  -1.6809409
    2   0.4676900
    3  -0.0007256
	Magnitude:	 1.745 au	 4.435 Debye
 CIS 2 State Energy is -363.2150759229
 Gradient of the state energy (including CIS Excitation Energy)
            1           2           3           4           5           6
    1  -0.0007953  -0.0177783   0.0230097  -0.0200780  -0.0098826  -0.0059484
    2  -0.0323556   0.0423945  -0.0086399   0.0295103  -0.0377643   0.0053742
    3  -0.0000071   0.0000106  -0.0000088   0.0000015   0.0000063   0.0000034
            7           8           9          10          11          12
    1   0.0170001  -0.0058812   0.0176342   0.0018104   0.0011751   0.0006475
    2   0.0313165   0.0074301  -0.0352896  -0.0025892   0.0002280  -0.0003574
    3  -0.0000240   0.0000032   0.0000077   0.0000067  -0.0000014  -0.0000001
           13          14          15          16
    1  -0.0010672   0.0007724  -0.0006787   0.0000604
    2   0.0003925  -0.0008252   0.0000278   0.0011472
    3   0.0000017   0.0000038  -0.0000039   0.0000003
 Gradient time:  CPU 35.27 s  wall 8.87 s
 Geometry Optimization Parameters
   NAtoms,    NIC,     NZ,  NCons,   NDum,   NFix, NCnnct, MaxDiis
       16     116       0       0       0       0       0       0

 Cartesian Hessian Update
 Hessian updated using BFGS update


** GEOMETRY OPTIMIZATION IN DELOCALIZED INTERNAL COORDINATES **
   Searching for a Minimum

   Optimization Cycle:   5

                       Coordinates (Angstroms)
     ATOM                X               Y               Z
      1  C         2.1631281047   -0.6967318793   -0.0000283443
      2  C         2.1401045545    0.7308641940    0.0000905961
      3  C         0.9291938669    1.4485844347    0.0000053433
      4  C        -0.2509642018    0.6806086984   -0.0001023819
      5  C        -0.2560584154   -0.7719994444   -0.0000571193
      6  C         0.9701927030   -1.4642934154    0.0000024559
      7  N        -1.5651665118    1.0825049933   -0.0001596538
      8  C        -1.6140592657   -1.1729197785   -0.0000032448
      9  C        -2.3939949882   -0.0236036148    0.0001151955
     10  H        -1.8789901437    2.0398719318    0.0005796805
     11  H        -1.9925707042   -2.1861910412   -0.0000381270
     12  H        -3.4677108581    0.0912129199    0.0001613426
     13  H         3.0789909345    1.2749522415    0.0001607989
     14  H         0.9135590872    2.5334312350   -0.0000684387
     15  H         3.1219971828   -1.2054587642   -0.0001368513
     16  H         1.0054436067   -2.5482802181    0.0000047294
   Point Group: c1    Number of degrees of freedom:    42


   Energy is   -363.215075923

 Hessian updated using BFGS update

 41 Hessian modes will be used to form the next step
  Hessian Eigenvalues:
     0.018594    0.019738    0.020011    0.020794    0.021683    0.022200
     0.022636    0.023004    0.023236    0.023608    0.023851    0.023984
     0.024127    0.159138    0.159987    0.160000    0.160004    0.160226
     0.160510    0.219668    0.223445    0.241549    0.246269    0.290903
[...]
            7           8           9          10          11          12
    1   0.0038964  -0.0038178  -0.0046233  -0.0000548  -0.0001085   0.0001945
    2  -0.0040770   0.0001093  -0.0009795   0.0005539  -0.0000003  -0.0000024
    3  -0.0000048   0.0000007   0.0000127  -0.0000015  -0.0000055  -0.0000030
           13          14          15          16
    1   0.0000129  -0.0001404   0.0000192   0.0000189
    2  -0.0002300   0.0000697  -0.0001718  -0.0001380
    3  -0.0000005  -0.0000007   0.0000000  -0.0000006
 Gradient time:  CPU 36.45 s  wall 9.17 s
 Geometry Optimization Parameters
   NAtoms,    NIC,     NZ,  NCons,   NDum,   NFix, NCnnct, MaxDiis
       16     116       0       0       0       0       0       0

 Cartesian Hessian Update
 Hessian updated using BFGS update


** GEOMETRY OPTIMIZATION IN DELOCALIZED INTERNAL COORDINATES **
   Searching for a Minimum

   Optimization Cycle:  49

                       Coordinates (Angstroms)
     ATOM                X               Y               Z
      1  C         2.1689879772   -0.6940703421   -0.0000419022
      2  C         2.1475422415    0.7303189511    0.0000262580
      3  C         0.9298109345    1.4490234635    0.0000715793
      4  C        -0.2498725411    0.6783161604    0.0000622695
      5  C        -0.2556238770   -0.7712792583    0.0000438930
      6  C         0.9730176373   -1.4644106942   -0.0000259727
      7  N        -1.5664223100    1.0756171094    0.0001098362
      8  C        -1.6185092507   -1.1705353367    0.0000606320
      9  C        -2.4056769934   -0.0220842057    0.0001755554
     10  H        -1.8786353166    2.0344858511    0.0001744476
     11  H        -1.9973458100   -2.1844506602   -0.0001037925
     12  H        -3.4798201597    0.0960486848    0.0000806375
     13  H         3.0878792539    1.2731514081    0.0000155047
     14  H         0.9106779521    2.5345926448    0.0000647070
     15  H         3.1284883852   -1.2029624894   -0.0001010288
     16  H         1.0085968281   -2.5492087941   -0.0000866427
   Point Group: c1    Number of degrees of freedom:    42


   Energy is   -363.215491419

 Hessian updated using BFGS update

 42 Hessian modes will be used to form the next step
  Hessian Eigenvalues:
     0.018600    0.019753    0.020022    0.020794    0.021819    0.022286
     0.022636    0.023008    0.023236    0.023609    0.023852    0.023985
     0.024130    0.159563    0.160009    0.160083    0.160203    0.160391
     0.160638    0.161860    0.221724    0.225886    0.244325    0.246865
     0.296095    0.357225    0.357496    0.357898    0.358131    0.364125
     0.364603    0.374192    0.409498    0.427215    0.442794    0.455543
     0.468911    0.472296    0.482114    0.510761    2.188886   28.306338
**WARNING** Magnitude of eigenvalue  42 too large.  Replaced by    25.000000

 Minimum search - taking simple RFO step
 Searching for Lamda that Minimizes Along All modes
 Value Taken    Lamda =  -0.00006110
 Step Taken.  Stepsize is  0.005604

                             Maximum     Tolerance    Cnvgd?
         Gradient           0.005213      0.000300      NO
         Displacement       0.002154      0.001200      NO
         Energy change     -0.000651      0.000001      NO


 New Cartesian Coordinates Obtained by Inverse Iteration

 Displacement from previous Coordinates is:  0.006707
 ----------------------------------------------------------------
             Standard Nuclear Orientation (Angstroms)
    I     Atom           X                Y                Z
 ----------------------------------------------------------------
    1      C       2.1687862489    -0.6949897800    -0.0001084657
    2      C       2.1466094234     0.7306479075    -0.0000238059
    3      C       0.9300981665     1.4494964863     0.0001079929
    4      C      -0.2503180995     0.6790220766     0.0000974179
    5      C      -0.2557419937    -0.7718361671     0.0000574219
    6      C       0.9728602521    -1.4651122845    -0.0000359339
    7      N      -1.5667860154     1.0766583528     0.0002270255
    8      C      -1.6177022838    -1.1705941218     0.0002095195
    9      C      -2.4046361497    -0.0220795093    -0.0000387106
   10      H      -1.8795726890     2.0351979885     0.0003448525
   11      H      -1.9969071600    -2.1843660831     0.0001493410
   12      H      -3.4789485491     0.0951651066    -0.0003077939
   13      H       3.0870913025     1.2733122055    -0.0000515639
   14      H       0.9115629792     2.5350652631     0.0001539545
   15      H       3.1286218457    -1.2031299723    -0.0001872522
   16      H       1.0080776732    -2.5499049764    -0.0000680185
 ----------------------------------------------------------------
 Molecular Point Group                 C1    NOp =  1
 Largest Abelian Subgroup              C1    NOp =  1
 Nuclear Repulsion Energy =         397.33937003 hartrees
 There are       31 alpha and       31 beta electrons
 Applying Cartesian multipole field
    Component          Value
    ---------          -----
     (2,0,0)        1.00000E-11
     (0,2,0)        2.00000E-11
     (0,0,2)       -3.00000E-11
 Nucleus-field energy     =     0.0000000119 hartrees
 Requested basis set is 6-31+G(d)
 There are 59 shells and 185 basis functions
 A cutoff of  1.0D-12 yielded   1656 shell pairs
 There are     17099 function pairs
 Smallest overlap matrix eigenvalue = 1.42E-06
 Guess MOs from SCF MO coefficient file

 -----------------------------------------------------------------------
  General SCF calculation program by
  Eric Jon Sundstrom, Paul Horn, Yuezhi Mao, Dmitri Zuev, Alec White,
  David Stuck, Shaama M.S., Shane Yost, Joonho Lee, David Small,
  Daniel Levine, Susi Lehtola, Hugh Burton, Evgeny Epifanovsky,
  Bang C. Huynh
 -----------------------------------------------------------------------
 Exchange:     0.2500 Hartree-Fock + 1.0000 PBE + -0.2500 wPBE + LR-HF
 Correlation:  1.0000 PBE
 Using SG-1 standard quadrature grid
 using 4 threads for integral computing
 -------------------------------------------------------
 OpenMP Integral computing Module                
 Release: version 1.0, May 2013, Q-Chem Inc. Pittsburgh 
 -------------------------------------------------------
 using 4 threads for integral computing
 -------------------------------------------------------
 OpenMP Integral computing Module                
 Release: version 1.0, May 2013, Q-Chem Inc. Pittsburgh 
 -------------------------------------------------------
 A restricted SCF calculation will be
 performed using DIIS
 SCF converges when DIIS error is below 1.0e-08
 ---------------------------------------
  Cycle       Energy         DIIS error
 ---------------------------------------
    1    -363.3932027645      2.88e-05  
    2    -363.3932068544      8.47e-06  
    3    -363.3932066962      1.03e-05  
    4    -363.3932071440      1.51e-06  
    5    -363.3932071502      8.98e-07  
    6    -363.3932071538      1.64e-07  
    7    -363.3932071540      7.50e-08  
    8    -363.3932071540      1.11e-08  
    9    -363.3932071540      9.70e-09  Convergence criterion met
 ---------------------------------------
 SCF time:   CPU 32.82s  wall 8.00s 
 SCF   energy in the final basis set =     -363.3932071540
 Total energy in the final basis set =     -363.3932071540
 
 Direct TDDFT/TDA calculation will be performed
 Exchange:     0.2500 Hartree-Fock + 1.0000 PBE + -0.2500 wPBE + LR-HF
 Correlation:  1.0000 PBE
 Using SG-1 standard quadrature grid
 Singlet excitation energies requested
 CIS energy converged when residual is below 10e- 6
 ---------------------------------------------------
 Iter    Rts Conv    Rts Left    Ttl Dev     Max Dev
 ---------------------------------------------------
   1         0           3      0.003727    0.001859
   2         0           3      0.003167    0.001846
   3         0           3      0.001553    0.001239
   4         0           3      0.000393    0.000272
   5         1           2      0.000112    0.000090
   6         1           2      0.000027    0.000021
   7         1           2      0.000007    0.000005
   8         2           1      0.000002    0.000001
   9         3           0      0.000001    0.000001    Roots Converged
 ---------------------------------------------------
 
 ---------------------------------------------------
         TDDFT/TDA Excitation Energies              
 ---------------------------------------------------

 Excited state   1: excitation energy (eV) =    4.8154
 Total energy for state  1:                  -363.21624526 au
    Multiplicity: Singlet
    Trans. Mom.:  0.5695 X  -0.7115 Y   0.0000 Z
    Strength   :     0.0979882228
    D(   30) --> V(    1) amplitude =  0.2374
    D(   30) --> V(    3) amplitude =  0.2523
    D(   31) --> V(    1) amplitude =  0.8892

 Excited state   2: excitation energy (eV) =    4.8344
 Total energy for state  2:                  -363.21554698 au
    Multiplicity: Singlet
    Trans. Mom.: -0.5416 X  -0.0693 Y  -0.0000 Z
    Strength   :     0.0353096568
    D(   30) --> V(    1) amplitude =  0.7496
    D(   31) --> V(    3) amplitude = -0.6096

 Excited state   3: excitation energy (eV) =    4.9981
 Total energy for state  3:                  -363.20953184 au
    Multiplicity: Singlet
    Trans. Mom.:  0.0002 X  -0.0002 Y  -0.1446 Z
    Strength   :     0.0025599519
    D(   31) --> V(    2) amplitude =  0.9963
 
 ---------------------------------------------------
 Calculating Relaxed Density
 ---------------------------------------------------
 Iter    Rts Conv    Rts Left    Ttl Dev     Max Dev
 ---------------------------------------------------
   1         0           3      0.001683    0.000894
   2         0           3      0.000609    0.000281
   3         0           3      0.000137    0.000062
   4         0           3      0.000041    0.000019
   5         0           3      0.000007    0.000003
   6         3           0      0.000000    0.000000    Roots Converged
 ---------------------------------------------------
  SETman timing summary (seconds)
  CPU time               160.35s
  System time              0.00s
  Wall time               40.33s
 
 --------------------------------------------------------------
 
                    Orbital Energies (a.u.)
 --------------------------------------------------------------
 
 Alpha MOs
 -- Occupied --
-14.4399 -10.2615 -10.2612 -10.2315 -10.2267 -10.2261 -10.2259 -10.2220
-10.2152  -0.9973  -0.8423  -0.7920  -0.7399  -0.7226  -0.6304  -0.6014
 -0.5833  -0.5408  -0.4887  -0.4699  -0.4358  -0.4313  -0.4223  -0.4065
 -0.3930  -0.3531  -0.3360  -0.3288  -0.2783  -0.2184  -0.2013
 -- Virtual --
 -0.0318  -0.0059   0.0062   0.0137   0.0193   0.0342   0.0358   0.0375
  0.0557   0.0573   0.0633   0.0636   0.0813   0.0851   0.1037   0.1048
  0.1082   0.1224   0.1307   0.1343   0.1508   0.1544   0.1617   0.1619
  0.1686   0.1785   0.1825   0.1831   0.1926   0.1948   0.1965   0.1974
  0.2146   0.2196   0.2277   0.2312   0.2350   0.2404   0.2519   0.2581
  0.2678   0.2701   0.2748   0.2888   0.2918   0.3000   0.3111   0.3254
  0.3396   0.3581   0.3685   0.3905   0.4215   0.4439   0.5057   0.5613
  0.5974   0.6740   0.6774   0.7020   0.7118   0.7243   0.7290   0.7358
  0.7402   0.7556   0.7563   0.7787   0.7919   0.7943   0.8119   0.8538
  0.8920   0.8988   0.9110   0.9408   0.9467   0.9546   0.9618   0.9875
  0.9965   1.0314   1.0492   1.0622   1.0897   1.1097   1.1107   1.1675
  1.1762   1.2006   1.2220   1.2315   1.2405   1.3144   1.3153   1.3386
  1.3621   1.4017   1.4036   1.4371   1.4563   1.4683   1.4893   1.4916
  1.5354   1.5814   1.6384   1.7806   1.8226   1.8852   1.8875   1.9039
  1.9202   1.9858   1.9914   2.0032   2.0400   2.0551   2.1251   2.1357
  2.1504   2.1868   2.2291   2.2353   2.2550   2.2636   2.2986   2.3615
  2.4022   2.4469   2.5296   2.5449   2.6243   2.6294   2.6472   2.6754
  2.7159   2.7911   2.8276   2.8371   2.9578   2.9665   3.0932   3.2287
  3.3879   4.1570   4.2539   4.3054   4.3313   4.3709   4.4116   4.4882
  4.5301   4.7825
 --------------------------------------------------------------
 
          Ground-State Mulliken Net Atomic Charges

     Atom                 Charge (a.u.)
  ----------------------------------------
      1 C                    -0.026015
      2 C                    -0.475385
      3 C                    -0.223996
      4 C                    -1.097729
      5 C                     1.503892
      6 C                    -0.721741
      7 N                    -0.447388
      8 C                    -0.003350
      9 C                    -0.216899
     10 H                     0.437063
     11 H                     0.217916
     12 H                     0.219564
     13 H                     0.206166
     14 H                     0.209337
     15 H                     0.203812
     16 H                     0.214752
  ----------------------------------------
  Sum of atomic charges =     0.000000

 -----------------------------------------------------------------
                    Cartesian Multipole Moments
 -----------------------------------------------------------------
    Charge (ESU x 10^10)
                -0.0000
    Dipole Moment (Debye)
         X      -1.5973      Y       1.6131      Z      -0.0002
       Tot       2.2701
    Quadrupole Moments (Debye-Ang)
        XX     -44.7500     XY      -3.2799     YY     -43.7735
        XZ       0.0005     YZ       0.0011     ZZ     -59.1789
    Octopole Moments (Debye-Ang^2)
       XXX     -15.4068    XXY       8.6826    XYY      -7.8188
       YYY      10.6687    XXZ      -0.0076    XYZ      -0.0011
       YYZ      -0.0000    XZZ      -2.3291    YZZ       2.1316
       ZZZ      -0.0087
    Hexadecapole Moments (Debye-Ang^3)
      XXXX    -810.5409   XXXY     -22.2944   XXYY    -197.1962
      XYYY     -20.1011   YYYY    -372.5171   XXXZ       0.0266
      XXYZ       0.0020   XYYZ       0.0001   YYYZ       0.0000
      XXZZ    -191.5420   XYZZ      -4.0817   YYZZ     -95.7484
      XZZZ       0.0177   YZZZ      -0.0071   ZZZZ     -73.1323
 -----------------------------------------------------------------
 Calculating analytic gradient of the CIS energy
 CIS relaxed dipole moment
            1
    1  -0.8853507
    2   0.5602108
    3  -0.0000266
	Magnitude:	 1.048 au	 2.663 Debye
 CIS 2 State Energy is -363.2155469796
 Gradient of the state energy (including CIS Excitation Energy)
            1           2           3           4           5           6
    1  -0.0006323   0.0040067  -0.0044945   0.0025767   0.0025302  -0.0000013
    2   0.0050010  -0.0054163  -0.0002966  -0.0010137   0.0047232   0.0004322
    3  -0.0000010  -0.0000022   0.0000030  -0.0000096  -0.0000164   0.0000011
            7           8           9          10          11          12
    1   0.0022129  -0.0025215  -0.0035771  -0.0000791  -0.0000989   0.0001446
    2  -0.0036368  -0.0001641   0.0002564   0.0004531   0.0000004   0.0000042
    3   0.0000209   0.0000357  -0.0000317   0.0000059   0.0000005  -0.0000063
           13          14          15          16
    1   0.0000135  -0.0001092   0.0000164   0.0000128
    2  -0.0001612   0.0000578  -0.0001245  -0.0001150
    3  -0.0000001  -0.0000001   0.0000001   0.0000002
 Gradient time:  CPU 36.21 s  wall 9.11 s
 Geometry Optimization Parameters
   NAtoms,    NIC,     NZ,  NCons,   NDum,   NFix, NCnnct, MaxDiis
       16     116       0       0       0       0       0       0

 Cartesian Hessian Update
 Hessian updated using BFGS update


** GEOMETRY OPTIMIZATION IN DELOCALIZED INTERNAL COORDINATES **
   Searching for a Minimum

   Optimization Cycle:  50

                       Coordinates (Angstroms)
     ATOM                X               Y               Z
      1  C         2.1687862489   -0.6949897800   -0.0001084657
      2  C         2.1466094234    0.7306479075   -0.0000238059
      3  C         0.9300981665    1.4494964863    0.0001079929
      4  C        -0.2503180995    0.6790220766    0.0000974179
      5  C        -0.2557419937   -0.7718361671    0.0000574219
      6  C         0.9728602521   -1.4651122845   -0.0000359339
      7  N        -1.5667860154    1.0766583528    0.0002270255
      8  C        -1.6177022838   -1.1705941218    0.0002095195
      9  C        -2.4046361497   -0.0220795093   -0.0000387106
     10  H        -1.8795726890    2.0351979885    0.0003448525
     11  H        -1.9969071600   -2.1843660831    0.0001493410
     12  H        -3.4789485491    0.0951651066   -0.0003077939
     13  H         3.0870913025    1.2733122055   -0.0000515639
     14  H         0.9115629792    2.5350652631    0.0001539545
     15  H         3.1286218457   -1.2031299723   -0.0001872522
     16  H         1.0080776732   -2.5499049764   -0.0000680185
   Point Group: c1    Number of degrees of freedom:    42


   Energy is   -363.215546980

 Hessian updated using BFGS update

 42 Hessian modes will be used to form the next step
  Hessian Eigenvalues:
     0.018601    0.019760    0.020026    0.020794    0.021866    0.022334
     0.022636    0.023010    0.023236    0.023609    0.023852    0.023986
     0.024133    0.156804    0.159563    0.160011    0.160100    0.160210
     0.160613    0.161510    0.216837    0.225832    0.244174    0.246142
     0.291066    0.356852    0.357256    0.357528    0.358107    0.363191
     0.364126    0.366304    0.399286    0.425423    0.433127    0.455470
     0.459702    0.469151    0.472304    0.483466    0.511973   28.475074
**WARNING** Magnitude of eigenvalue  42 too large.  Replaced by    25.000000

 Minimum search - taking simple RFO step
 Searching for Lamda that Minimizes Along All modes
 Value Taken    Lamda =  -0.00022436
 Step Taken.  Stepsize is  0.025219

                             Maximum     Tolerance    Cnvgd?
         Gradient           0.004253      0.000300      NO
         Displacement       0.009583      0.001200      NO
         Energy change     -0.000056      0.000001      NO


 New Cartesian Coordinates Obtained by Inverse Iteration

 Displacement from previous Coordinates is:  0.029948
 ----------------------------------------------------------------
             Standard Nuclear Orientation (Angstroms)
    I     Atom           X                Y                Z
 ----------------------------------------------------------------
    1      C       2.1678799959    -0.6991292648     0.0001577344
    2      C       2.1424151056     0.7321589751     0.0001505474
    3      C       0.9313984763     1.4516847170    -0.0000535019
    4      C      -0.2523909298     0.6821895096    -0.0000609458
    5      C      -0.2562604399    -0.7742937876    -0.0000430434
    6      C       0.9721738649    -1.4683427233    -0.0000606468
    7      N      -1.5683983530     1.0814165786    -0.0001690321
    8      C      -1.6141660090    -1.1708268330    -0.0004306600
    9      C      -2.3999952006    -0.0221312868     0.0009711561
   10      H      -1.8837574659     2.0384651734    -0.0005829651
   11      H      -1.9949229051    -2.1839930112    -0.0008751891
   12      H      -3.4750554054     0.0912113833     0.0013452758
   13      H       3.0837248898     1.2737694674     0.0002183227
   14      H       0.9153082117     2.5372337323    -0.0001063254
   15      H       3.1292834116    -1.2037803066     0.0002703875
   16      H       1.0058577041    -2.5530798308    -0.0002051331
 ----------------------------------------------------------------
 Molecular Point Group                 C1    NOp =  1
 Largest Abelian Subgroup              C1    NOp =  1
 Nuclear Repulsion Energy =         397.24136597 hartrees
 There are       31 alpha and       31 beta electrons


 *******************************************
 **  MAXIMUM OPTIMIZATION CYCLES REACHED  **
 *******************************************

 Q-Chem fatal error occurred in module 0, line  455:

 Maximum optimization cycles reached

