
Running Job 1 of 1 QfuncsB3PW91-VI-3rd.in
qchem QfuncsB3PW91-VI-3rd.in_117942.0 /scratch/scaparas/job_3584430/qchem117942/ 0
/cm/shared/apps/spack/cpu/opt/spack/linux-centos8-zen2/gcc-10.2.0/qchem-5.3-5qddma6gy34jvefiv7mbcb7qm253n45r/exe/qcprog.exe_s QfuncsB3PW91-VI-3rd.in_117942.0 /scratch/scaparas/job_3584430/qchem117942/
                  Welcome to Q-Chem
     A Quantum Leap Into The Future Of Chemistry


 Q-Chem 5.3, Q-Chem, Inc., Pleasanton, CA (2020)

 License issued to: University of California, San Diego (site)

 Yihan Shao,  Zhengting Gan,  E. Epifanovsky,  A. T. B. Gilbert,  M. Wormit,  
 J. Kussmann,  A. W. Lange,  A. Behn,  Jia Deng,  Xintian Feng,  D. Ghosh,  
 M. Goldey,  P. R. Horn,  L. D. Jacobson,  I. Kaliman,  T. Kus,  A. Landau,  
 Jie Liu,  E. I. Proynov,  R. M. Richard,  R. P. Steele,  E. J. Sundstrom,  
 H. L. Woodcock III,  P. M. Zimmerman,  D. Zuev,  B. Alam,  B. Albrecht,  
 A. Aldossary,  E. Alguire,  S. A. Baeppler,  D. Barton,  Z. Benda,  
 Y. A. Bernard,  E. J. Berquist,  K. B. Bravaya,  H. Burton,  K. Carter-Fenk,  
 D. Casanova,  Chun-Min Chang,  Yunqing Chen,  A. Chien,  K. D. Closser,  
 M. P. Coons,  S. Coriani,  S. Dasgupta,  A. L. Dempwolff,  M. Diedenhofen,  
 Hainam Do,  R. G. Edgar,  Po-Tung Fang,  S. Faraji,  S. Fatehi,  
 Qingguo Feng,  J. Fosso-Tande,  J. Gayvert,  Qinghui Ge,  A. Ghysels,  
 G. Gidofalvi,  J. Gomes,  J. Gonthier,  S. Gulania,  A. Gunina,  D. Hait,  
 M. W. D. Hanson-Heine,  S. Hammes-Schiffer,  P. H. P. Harbach,  
 A. W. Hauser,  M. F. Herbst,  J. E. Herr,  E. G. Hohenstein,  Z. C. Holden,  
 S. Houck,  Kerwin Hui,  B. C. Huynh,  M. Ivanov,  T.-C. Jagau,  Hyunjun Ji,  
 B. Kaduk,  K. Khistyaev,  Jaehoon Kim,  P. Klunzinger,  K. Koh,  
 D. Kosenkov,  L. Koulias,  T. Kowalczyk,  C. M. Krauter,  A. Kunitsa,  
 Ka Un Lao,  A. Laurent,  K. V. Lawler,  Joonho Lee,  D. Lefrancois,  
 S. Lehtola,  D. S. Levine,  Yi-Pei Li,  You-Sheng Lin,  Fenglai Liu,  
 Kuan-Yu Liu,  E. Livshits,  M. Loipersberger,  A. Luenser,  P. Manohar,  
 E. Mansoor,  S. F. Manzer,  Shan-Ping Mao,  Yuezhi Mao,  N. Mardirossian,  
 A. V. Marenich,  T. Markovich,  L. A. Martinez-Martinez,  S. A. Maurer,  
 N. J. Mayhall,  S. C. McKenzie,  J.-M. Mewes,  P. Morgante,  A. F. Morrison,  
 J. W. Mullinax,  K. Nanda,  T. S. Nguyen-Beck,  R. Olivares-Amaya,  
 K. J. Oosterbaan,  J. A. Parkhill,  S. K. Paul,  F. Pavosevic,  Zheng Pei,  
 T. M. Perrine,  F. Plasser,  P. Pokhilko,  S. Prager,  A. Prociuk,  
 E. Ramos,  B. Rana,  D. R. Rehn,  F. Rob,  E. Rossomme,  M. Scheurer,  
 M. Schneider,  N. Sergueev,  S. M. Sharada,  S. Sharma,  W. Skomorowski,  
 D. W. Small,  T. Stauch,  C. J. Stein,  T. Stein,  Yu-Chuan Su,  
 S. P. Veccham,  Zhen Tao,  A. J. W. Thom,  A. Tkatchenko,  T. Tsuchimochi,  
 N. M. Tubman,  L. Vogt,  M. L. Vidal,  O. Vydrov,  M. A. Watson,  J. Wenzel,  
 M. de Wergifosse,  T. A. Wesolowski,  A. White,  J. Witte,  A. Yamada,  
 Jun Yang,  K. Yao,  S. Yeganeh,  S. R. Yost,  Zhi-Qiang You,  A. Zech,  
 Igor Ying Zhang,  Xing Zhang,  Yan Zhao,  Ying Zhu,  B. R. Brooks,  
 G. K. L. Chan,  C. J. Cramer,  M. S. Gordon,  W. J. Hehre,  A. Klamt,  
 M. W. Schmidt,  C. D. Sherrill,  D. G. Truhlar,  A. Aspuru-Guzik,  R. Baer,  
 A. T. Bell,  N. A. Besley,  Jeng-Da Chai,  A. E. DePrince, III,  
 R. A. DiStasio Jr.,  A. Dreuw,  B. D. Dunietz,  T. R. Furlani,  
 Chao-Ping Hsu,  Yousung Jung,  Jing Kong,  D. S. Lambrecht,  WanZhen Liang,  
 C. Ochsenfeld,  V. A. Rassolov,  L. V. Slipchenko,  J. E. Subotnik,  
 T. Van Voorhis,  J. M. Herbert,  A. I. Krylov,  P. M. W. Gill,  M. Head-Gordon

 Contributors to earlier versions of Q-Chem not listed above: 
 R. D. Adamson,  B. Austin,  J. Baker,  G. J. O. Beran,  K. Brandhorst,  
 S. T. Brown,  E. F. C. Byrd,  A. K. Chakraborty,  C.-L. Cheng,  
 Siu Hung Chien,  D. M. Chipman,  D. L. Crittenden,  H. Dachsel,  
 R. J. Doerksen,  A. D. Dutoi,  L. Fusti-Molnar,  W. A. Goddard III,  
 A. Golubeva-Zadorozhnaya,  S. R. Gwaltney,  G. Hawkins,  A. Heyden,  
 S. Hirata,  G. Kedziora,  F. J. Keil,  C. Kelley,  Jihan Kim,  R. A. King,  
 R. Z. Khaliullin,  P. P. Korambath,  W. Kurlancheek,  A. M. Lee,  M. S. Lee,  
 S. V. Levchenko,  Ching Yeh Lin,  D. Liotard,  R. C. Lochan,  I. Lotan,  
 P. E. Maslen,  N. Nair,  D. P. O'Neill,  D. Neuhauser,  E. Neuscamman,  
 C. M. Oana,  R. Olson,  B. Peters,  R. Peverati,  P. A. Pieniazek,  
 Y. M. Rhee,  J. Ritchie,  M. A. Rohrdanz,  E. Rosta,  N. J. Russ,  
 H. F. Schaefer III,  N. E. Schultz,  N. Shenvi,  A. C. Simmonett,  A. Sodt,  
 D. Stuck,  K. S. Thanthiriwatte,  V. Vanovschi,  Tao Wang,  A. Warshel,  
 C. F. Williams,  Q. Wu,  X. Xu,  W. Zhang

 Please cite Q-Chem as follows:
 Y. Shao et al., Mol. Phys. 113, 184-215 (2015)
 DOI: 10.1080/00268976.2014.952696

 Q-Chem 5.3.1 for Intel X86 EM64T Linux

 Parts of Q-Chem use Armadillo 9.800.1 (Horizon Scraper).
 http://arma.sourceforge.net/

 Q-Chem begins on Wed Jun 23 13:24:38 2021  

Host: 
0

     Scratch files written to /scratch/scaparas/job_3584430/qchem117942//
 Aug2920 |scratch|qcdevops|jenkins|workspace|build_RNUM    
Processing $rem in /cm/shared/apps/spack/cpu/opt/spack/linux-centos8-zen2/gcc-10.2.0/qchem-5.3-5qddma6gy34jvefiv7mbcb7qm253n45r/config/preferences:
Processing $rem in /home/scaparas/.qchemrc:

Checking the input file for inconsistencies... 	...done.

--------------------------------------------------------------
User input:
--------------------------------------------------------------
$molecule
0 1
C   -2.1510630    0.6892080    0.0000880
C   -2.1279270   -0.7158180    0.0000750
C   -0.9322970   -1.4131000   -0.0000110
C    0.2469110   -0.6702010   -0.0000420
C    0.2481930    0.7482990    0.0000000
C   -0.9794740    1.4235260    0.0000320
N    1.5617740   -1.0775920   -0.0002850
C    1.6201330    1.1629000   -0.0001570
C    2.3820130    0.0308060    0.0002480
H    1.8763150   -2.0300110    0.0004380
H    1.9921730    2.1730100   -0.0003480
H    3.4525490   -0.0824250    0.0004080
H   -3.0615940   -1.2620200    0.0000880
H   -0.9172520   -2.4953420   -0.0000730
H   -3.1042030    1.2007850    0.0000900
H   -1.0093480    2.5054210   -0.0000150
$end

$rem
BASIS  =  6-31+G*
GUI  =  2
JOB_TYPE  =  Optimization
METHOD  = B3PW91
SCF_CONVERGENCE  =  8
THRESH = 12
CIS_N_ROOTS  = 3
CIS_SINGLETS = true
CIS_TRIPLETS = false
CIS_STATE_DERIV = 3
MEM_STATIC=500
MEM_TOTAL=3000
$end
--------------------------------------------------------------
 ----------------------------------------------------------------
             Standard Nuclear Orientation (Angstroms)
    I     Atom           X                Y                Z
 ----------------------------------------------------------------
    1      C       2.1510629040    -0.6892079969     0.0000583065
    2      C       2.1279268385     0.7158180020     0.0000481775
    3      C       0.9322968051     1.4130999466    -0.0000206639
    4      C      -0.2469111607     0.6702008918    -0.0000373513
    5      C      -0.2481930942    -0.7482991083     0.0000020775
    6      C       0.9794739374    -1.4235260513     0.0000165335
    7      N      -1.5617741827     1.0775918311    -0.0002621374
    8      C      -1.6201330769    -1.1629001718    -0.0001374500
    9      C      -2.3820131241    -0.0308062080     0.0002797387
   10      H      -1.8763152174     2.0300108152     0.0004667797
   11      H      -1.9921730325    -2.1730101887    -0.0003253498
   12      H      -3.4525491271     0.0824247420     0.0004541695
   13      H       3.0615938132     1.2620200454     0.0000497686
   14      H       0.9172517540     2.4953419460    -0.0000804893
   15      H       3.1042029277    -1.2007849526     0.0000467087
   16      H       1.0093479871    -2.5054210498    -0.0000328375
 ----------------------------------------------------------------
 Molecular Point Group                 C1    NOp =  1
 Largest Abelian Subgroup              C1    NOp =  1
 Nuclear Repulsion Energy =         401.33686680 hartrees
 There are       31 alpha and       31 beta electrons
 Requested basis set is 6-31+G(d)
 There are 59 shells and 185 basis functions

 Total QAlloc Memory Limit   3000 MB
 Mega-Array Size       489 MB
 MEM_STATIC part       500 MB
 A cutoff of  1.0D-12 yielded   1657 shell pairs
 There are     17105 function pairs
 Smallest overlap matrix eigenvalue = 1.26E-06

 Scale SEOQF with 1.000000e-01/1.000000e-01/1.000000e-01

 Standard Electronic Orientation quadrupole field applied
 Nucleus-field energy     =     0.0000000117 hartrees
 Guess from superposition of atomic densities
 Warning:  Energy on first SCF cycle will be non-variational
 SAD guess density has 62.000000 electrons

 -----------------------------------------------------------------------
  General SCF calculation program by
  Eric Jon Sundstrom, Paul Horn, Yuezhi Mao, Dmitri Zuev, Alec White,
  David Stuck, Shaama M.S., Shane Yost, Joonho Lee, David Small,
  Daniel Levine, Susi Lehtola, Hugh Burton, Evgeny Epifanovsky,
  Bang C. Huynh
 -----------------------------------------------------------------------
 Exchange:     0.2000 Hartree-Fock + 0.0800 Slater + 0.7200 B88
 Correlation:  0.1900 PW92 + 0.8100 PW91
 Using SG-1 standard quadrature grid
 using 4 threads for integral computing
 -------------------------------------------------------
 OpenMP Integral computing Module                
 Release: version 1.0, May 2013, Q-Chem Inc. Pittsburgh 
 -------------------------------------------------------
 A restricted SCF calculation will be
 performed using DIIS
 SCF converges when DIIS error is below 1.0e-08
 ---------------------------------------
  Cycle       Energy         DIIS error
 ---------------------------------------
    1    -366.0658445251      5.55e-02  
    2    -363.5688122962      4.99e-03  
    3    -363.5237659352      5.87e-03  
    4    -363.6827732806      1.47e-03  
    5    -363.6919449186      3.84e-04  
    6    -363.6925444432      1.17e-04  
    7    -363.6925957808      4.69e-05  
    8    -363.6926054009      9.84e-06  
    9    -363.6926058037      1.76e-06  
   10    -363.6926058157      7.91e-07  
   11    -363.6926058183      2.10e-07  
   12    -363.6926058185      8.32e-08  
   13    -363.6926058185      1.77e-08  
   14    -363.6926058185      6.69e-09  Convergence criterion met
 ---------------------------------------
 SCF time:   CPU 38.36s  wall 10.00s 
 SCF   energy in the final basis set =     -363.6926058185
 Total energy in the final basis set =     -363.6926058185
 
 Direct TDDFT/TDA calculation will be performed
 Exchange:     0.2000 Hartree-Fock + 0.0800 Slater + 0.7200 B88
 Correlation:  0.1900 PW92 + 0.8100 PW91
 Using SG-1 standard quadrature grid
 Singlet excitation energies requested
 CIS energy converged when residual is below 10e- 6
 ---------------------------------------------------
 Iter    Rts Conv    Rts Left    Ttl Dev     Max Dev
 ---------------------------------------------------
   1         0           3      0.003734    0.001845
   2         0           3      0.001970    0.001226
   3         0           3      0.000544    0.000384
   4         0           3      0.000186    0.000133
   5         0           3      0.000058    0.000041
   6         1           2      0.000015    0.000011
   7         1           2      0.000005    0.000004
   8         2           1      0.000002    0.000001
   9         3           0      0.000001    0.000000    Roots Converged
 ---------------------------------------------------
 
 ---------------------------------------------------
         TDDFT/TDA Excitation Energies              
 ---------------------------------------------------

 Excited state   1: excitation energy (eV) =    4.9586
 Total energy for state  1:                  -363.51038216 au
    Multiplicity: Singlet
    Trans. Mom.:  0.4189 X  -0.6538 Y  -0.0001 Z
    Strength   :     0.0732448807
    D(   30) --> V(    1) amplitude = -0.3610
    D(   30) --> V(    3) amplitude = -0.2408
    D(   31) --> V(    1) amplitude =  0.8412

 Excited state   2: excitation energy (eV) =    5.0199
 Total energy for state  2:                  -363.50812779 au
    Multiplicity: Singlet
    Trans. Mom.:  0.5908 X  -0.0572 Y  -0.0002 Z
    Strength   :     0.0433293302
    D(   30) --> V(    1) amplitude =  0.6918
    D(   31) --> V(    1) amplitude =  0.3481
    D(   31) --> V(    3) amplitude =  0.6065

 Excited state   3: excitation energy (eV) =    5.1886
 Total energy for state  3:                  -363.50192984 au
    Multiplicity: Singlet
    Trans. Mom.:  0.0009 X  -0.0006 Y   0.1270 Z
    Strength   :     0.0020505277
    D(   31) --> V(    2) amplitude =  0.9953
 
 ---------------------------------------------------
 Calculating Relaxed Density
 ---------------------------------------------------
 Iter    Rts Conv    Rts Left    Ttl Dev     Max Dev
 ---------------------------------------------------
   1         0           3      0.001492    0.000721
   2         0           3      0.000549    0.000216
   3         0           3      0.000130    0.000052
   4         0           3      0.000036    0.000018
   5         0           3      0.000008    0.000003
   6         3           0      0.000000    0.000000    Roots Converged
 ---------------------------------------------------
  SETman timing summary (seconds)
  CPU time               113.50s
  System time              0.00s
  Wall time               28.52s
 
 --------------------------------------------------------------
 
                    Orbital Energies (a.u.)
 --------------------------------------------------------------
 
 Alpha MOs
 -- Occupied --
-14.3776 -10.2116 -10.2096 -10.1795 -10.1755 -10.1741 -10.1740 -10.1691
-10.1669  -0.9922  -0.8479  -0.7910  -0.7432  -0.7248  -0.6316  -0.6022
 -0.5885  -0.5468  -0.4889  -0.4766  -0.4429  -0.4343  -0.4284  -0.4161
 -0.3966  -0.3594  -0.3404  -0.3390  -0.2848  -0.2290  -0.2121
 -- Virtual --
 -0.0182   0.0075   0.0181   0.0259   0.0321   0.0471   0.0480   0.0483
  0.0691   0.0709   0.0757   0.0763   0.0960   0.0988   0.1164   0.1169
  0.1210   0.1355   0.1450   0.1479   0.1624   0.1683   0.1742   0.1748
  0.1783   0.1854   0.1946   0.1974   0.2043   0.2056   0.2079   0.2093
  0.2256   0.2315   0.2380   0.2444   0.2449   0.2519   0.2626   0.2671
  0.2780   0.2798   0.2842   0.3022   0.3065   0.3143   0.3229   0.3381
  0.3566   0.3706   0.3824   0.4032   0.4362   0.4533   0.5170   0.5832
  0.6279   0.6772   0.6792   0.7023   0.7197   0.7239   0.7337   0.7396
  0.7452   0.7558   0.7604   0.7806   0.7949   0.8033   0.8183   0.8562
  0.8968   0.9040   0.9157   0.9390   0.9459   0.9554   0.9619   0.9866
  1.0050   1.0334   1.0505   1.0675   1.0971   1.1154   1.1183   1.1727
  1.1810   1.2066   1.2267   1.2328   1.2535   1.3184   1.3189   1.3388
  1.3695   1.4123   1.4184   1.4524   1.4579   1.4650   1.4958   1.5014
  1.5399   1.5898   1.6505   1.7872   1.8447   1.8836   1.8913   1.9220
  1.9431   1.9948   1.9979   2.0048   2.0636   2.1001   2.1426   2.1729
  2.1737   2.1989   2.2488   2.2607   2.2658   2.2869   2.3155   2.3814
  2.4093   2.4476   2.5497   2.5593   2.6387   2.6604   2.6712   2.7014
  2.7379   2.8116   2.8491   2.8597   2.9574   2.9823   3.1151   3.2451
  3.4511   4.1547   4.2657   4.2955   4.3304   4.3661   4.4017   4.4851
  4.5243   4.7945
 --------------------------------------------------------------
 
          Ground-State Mulliken Net Atomic Charges

     Atom                 Charge (a.u.)
  ----------------------------------------
      1 C                     0.014099
      2 C                    -0.523729
      3 C                    -0.102105
      4 C                    -1.144897
      5 C                     1.550436
      6 C                    -0.792364
      7 N                    -0.448629
      8 C                     0.040131
      9 C                    -0.220965
     10 H                     0.425224
     11 H                     0.208167
     12 H                     0.207692
     13 H                     0.195692
     14 H                     0.195487
     15 H                     0.194180
     16 H                     0.201581
  ----------------------------------------
  Sum of atomic charges =     0.000000

 -----------------------------------------------------------------
                    Cartesian Multipole Moments
 -----------------------------------------------------------------
    Charge (ESU x 10^10)
                -0.0000
    Dipole Moment (Debye)
         X      -1.5173      Y       1.5656      Z       0.0010
       Tot       2.1802
    Quadrupole Moments (Debye-Ang)
        XX     -44.7503     XY      -3.1785     YY     -43.8837
        XZ      -0.0032     YZ       0.0032     ZZ     -58.3404
    Octopole Moments (Debye-Ang^2)
       XXX     -14.4923    XXY       8.1744    XYY      -7.9961
       YYY      10.3966    XXZ       0.0074    XYZ      -0.0066
       YYZ       0.0021    XZZ      -1.9726    YZZ       1.9661
       ZZZ      -0.0009
    Hexadecapole Moments (Debye-Ang^3)
      XXXX    -802.0354   XXXY     -21.4723   XXYY    -192.8893
      XYYY     -19.5191   YYYY    -362.7765   XXXZ      -0.0236
      XXYZ       0.0129   XYYZ      -0.0071   YYYZ       0.0140
      XXZZ    -186.3416   XYZZ      -3.8535   YYZZ     -91.9728
      XZZZ      -0.0010   YZZZ       0.0028   ZZZZ     -70.4445
 -----------------------------------------------------------------
 Calculating analytic gradient of the CIS energy
 CIS relaxed dipole moment
            1
    1   2.4434854
    2  -2.5831490
    3   0.0000455
	Magnitude:	 3.556 au	 9.038 Debye
 CIS 3 State Energy is -363.5019298407
 Gradient of the state energy (including CIS Excitation Energy)
            1           2           3           4           5           6
    1  -0.0125709  -0.0155033   0.0287399  -0.0082697   0.0068744   0.0071133
    2  -0.0136292   0.0240313  -0.0069099  -0.0005360  -0.0017730   0.0093319
    3  -0.0000024   0.0000004   0.0000130  -0.0000030   0.0000389   0.0000140
            7           8           9          10          11          12
    1   0.0200136  -0.0389760  -0.0078201   0.0153842   0.0022292   0.0067236
    2   0.0670408   0.0231463  -0.0689346  -0.0344427   0.0053100  -0.0041699
    3  -0.0000859  -0.0000445   0.0000951  -0.0000008  -0.0000049  -0.0000069
           13          14          15          16
    1  -0.0027179   0.0019754  -0.0028310  -0.0003647
    2  -0.0016038  -0.0017211   0.0017070   0.0031528
    3  -0.0000011  -0.0000030  -0.0000038  -0.0000052
 Gradient time:  CPU 21.89 s  wall 5.50 s
 Geometry Optimization Parameters
   NAtoms,    NIC,     NZ,  NCons,   NDum,   NFix, NCnnct, MaxDiis
       16     116       0       0       0       0       0       0


** GEOMETRY OPTIMIZATION IN DELOCALIZED INTERNAL COORDINATES **
   Searching for a Minimum

   Optimization Cycle:   1

                       Coordinates (Angstroms)
     ATOM                X               Y               Z
      1  C         2.1510629040   -0.6892079969    0.0000583065
      2  C         2.1279268385    0.7158180020    0.0000481775
      3  C         0.9322968051    1.4130999466   -0.0000206639
      4  C        -0.2469111607    0.6702008918   -0.0000373513
      5  C        -0.2481930942   -0.7482991083    0.0000020775
      6  C         0.9794739374   -1.4235260513    0.0000165335
      7  N        -1.5617741827    1.0775918311   -0.0002621374
      8  C        -1.6201330769   -1.1629001718   -0.0001374500
      9  C        -2.3820131241   -0.0308062080    0.0002797387
     10  H        -1.8763152174    2.0300108152    0.0004667797
     11  H        -1.9921730325   -2.1730101887   -0.0003253498
     12  H        -3.4525491271    0.0824247420    0.0004541695
     13  H         3.0615938132    1.2620200454    0.0000497686
     14  H         0.9172517540    2.4953419460   -0.0000804893
     15  H         3.1042029277   -1.2007849526    0.0000467087
     16  H         1.0093479871   -2.5054210498   -0.0000328375
   Point Group: c1    Number of degrees of freedom:    42


   Energy is   -363.501929841


 Attempting to generate delocalized internal coordinates
 Initial Hessian constructed with Jon Baker's OPTIMIZE code

 42 Hessian modes will be used to form the next step
  Hessian Eigenvalues:
     0.018594    0.019738    0.020011    0.020794    0.021683    0.022200
     0.022636    0.023004    0.023236    0.023608    0.023851    0.023984
     0.024127    0.160000    0.160000    0.160000    0.160000    0.160000
     0.160000    0.160000    0.220000    0.221879    0.226618    0.240111
     0.246509    0.357123    0.357170    0.357835    0.357899    0.364196
     0.364272    0.370088    0.384319    0.426334    0.434649    0.457693
     0.466917    0.471622    0.474685    0.475669    0.481247    0.509555

 Minimum search - taking simple RFO step
 Searching for Lamda that Minimizes Along All modes
 Value Taken    Lamda =  -0.01491723
 Step Taken.  Stepsize is  0.179895

                             Maximum     Tolerance    Cnvgd?
         Gradient           0.038457      0.000300      NO
         Displacement       0.095975      0.001200      NO
         Energy change     *********      0.000001      NO


 New Cartesian Coordinates Obtained by Inverse Iteration

 Displacement from previous Coordinates is:  0.253960
 ----------------------------------------------------------------
             Standard Nuclear Orientation (Angstroms)
    I     Atom           X                Y                Z
 ----------------------------------------------------------------
    1      C       2.1785825633    -0.7004585207    -0.0000392339
    2      C       2.1297568216     0.6966561779    -0.0000198301
    3      C       0.9057685937     1.4028117499     0.0000156732
    4      C      -0.2597971097     0.6611276588     0.0000991946
    5      C      -0.2339343353    -0.7562955116     0.0000189679
    6      C       0.9967114433    -1.4433404740    -0.0000698919
    7      N      -1.5837795048     1.0723435208     0.0000076422
    8      C      -1.5934932424    -1.1606047508     0.0001089343
    9      C      -2.3790707821     0.0069421850    -0.0000124803
   10      H      -1.9291491064     2.0573814091     0.0005425845
   11      H      -1.9720766287    -2.1768579970     0.0000193172
   12      H      -3.4567111085     0.1450308476    -0.0000622597
   13      H       3.0608100230     1.2560531835    -0.0000200900
   14      H       0.8732780632     2.4871621834     0.0000438201
   15      H       3.1404195640    -1.2056472306    -0.0000431674
   16      H       1.0257796972    -2.5297519385    -0.0000631997
 ----------------------------------------------------------------
 Molecular Point Group                 C1    NOp =  1
 Largest Abelian Subgroup              C1    NOp =  1
 Nuclear Repulsion Energy =         400.57408520 hartrees
 There are       31 alpha and       31 beta electrons
 Applying Cartesian multipole field
    Component          Value
    ---------          -----
     (2,0,0)        1.00000E-11
     (0,2,0)        2.00000E-11
     (0,0,2)       -3.00000E-11
 Nucleus-field energy     =     0.0000000117 hartrees
 Requested basis set is 6-31+G(d)
 There are 59 shells and 185 basis functions
 A cutoff of  1.0D-12 yielded   1658 shell pairs
 There are     17111 function pairs
 Smallest overlap matrix eigenvalue = 1.20E-06
 Guess MOs from SCF MO coefficient file

 -----------------------------------------------------------------------
  General SCF calculation program by
  Eric Jon Sundstrom, Paul Horn, Yuezhi Mao, Dmitri Zuev, Alec White,
  David Stuck, Shaama M.S., Shane Yost, Joonho Lee, David Small,
  Daniel Levine, Susi Lehtola, Hugh Burton, Evgeny Epifanovsky,
  Bang C. Huynh
 -----------------------------------------------------------------------
 Exchange:     0.2000 Hartree-Fock + 0.0800 Slater + 0.7200 B88
 Correlation:  0.1900 PW92 + 0.8100 PW91
 Using SG-1 standard quadrature grid
 using 4 threads for integral computing
 -------------------------------------------------------
 OpenMP Integral computing Module                
 Release: version 1.0, May 2013, Q-Chem Inc. Pittsburgh 
 -------------------------------------------------------
 A restricted SCF calculation will be
 performed using DIIS
 SCF converges when DIIS error is below 1.0e-08
 ---------------------------------------
  Cycle       Energy         DIIS error
 ---------------------------------------
    1    -363.6829354803      8.40e-04  
    2    -363.6868030016      2.34e-04  
    3    -363.6868049024      2.33e-04  
    4    -363.6869952313      8.04e-05  
    5    -363.6870197061      2.81e-05  
    6    -363.6870233834      6.13e-06  
    7    -363.6870235462      2.09e-06  
    8    -363.6870235644      9.12e-07  
    9    -363.6870235682      2.34e-07  
   10    -363.6870235685      7.43e-08  
   11    -363.6870235685      3.22e-08  
   12    -363.6870235685      5.08e-09  Convergence criterion met
 ---------------------------------------
 SCF time:   CPU 35.18s  wall 9.00s 
 SCF   energy in the final basis set =     -363.6870235685
 Total energy in the final basis set =     -363.6870235685
 
 Direct TDDFT/TDA calculation will be performed
 Exchange:     0.2000 Hartree-Fock + 0.0800 Slater + 0.7200 B88
 Correlation:  0.1900 PW92 + 0.8100 PW91
 Using SG-1 standard quadrature grid
 Singlet excitation energies requested
 CIS energy converged when residual is below 10e- 6
 ---------------------------------------------------
 Iter    Rts Conv    Rts Left    Ttl Dev     Max Dev
 ---------------------------------------------------
   1         0           3      0.003775    0.001874
   2         0           3      0.002481    0.001860
   3         0           3      0.001081    0.000963
   4         0           3      0.000252    0.000211
   5         1           2      0.000076    0.000063
   6         1           2      0.000026    0.000023
   7         2           1      0.000008    0.000006
   8         2           1      0.000004    0.000002
   9         3           0      0.000002    0.000001    Roots Converged
 ---------------------------------------------------
 
 ---------------------------------------------------
         TDDFT/TDA Excitation Energies              
 ---------------------------------------------------

 Excited state   1: excitation energy (eV) =    4.6877
 Total energy for state  1:                  -363.51475220 au
    Multiplicity: Singlet
    Trans. Mom.:  0.8232 X  -0.6409 Y  -0.0001 Z
    Strength   :     0.1250048803
    D(   30) --> V(    3) amplitude = -0.2163
    D(   31) --> V(    1) amplitude =  0.9089

 Excited state   2: excitation energy (eV) =    4.7856
 Total energy for state  2:                  -363.51115755 au
    Multiplicity: Singlet
    Trans. Mom.:  0.0006 X  -0.0005 Y   0.1192 Z
    Strength   :     0.0016656387
    D(   31) --> V(    2) amplitude =  0.9963

 Excited state   3: excitation energy (eV) =    4.9719
 Total energy for state  3:                  -363.50431026 au
    Multiplicity: Singlet
    Trans. Mom.:  0.0580 X  -0.2158 Y  -0.0000 Z
    Strength   :     0.0060807804
    D(   30) --> V(    1) amplitude =  0.7237
    D(   31) --> V(    3) amplitude =  0.6542
 
 ---------------------------------------------------
 Calculating Relaxed Density
 ---------------------------------------------------
 Iter    Rts Conv    Rts Left    Ttl Dev     Max Dev
 ---------------------------------------------------
   1         0           3      0.001611    0.000801
   2         0           3      0.000591    0.000299
   3         0           3      0.000150    0.000074
   4         0           3      0.000042    0.000021
   5         1           2      0.000008    0.000005
   6         1           2      0.000003    0.000002
   7         3           0      0.000000    0.000000    Roots Converged
 ---------------------------------------------------
  SETman timing summary (seconds)
  CPU time               116.62s
  System time              0.00s
  Wall time               29.30s
 
 --------------------------------------------------------------
 
                    Orbital Energies (a.u.)
 --------------------------------------------------------------
 
 Alpha MOs
 -- Occupied --
-14.3851 -10.2140 -10.2095 -10.1821 -10.1767 -10.1762 -10.1756 -10.1724
-10.1668  -1.0010  -0.8475  -0.7849  -0.7484  -0.7159  -0.6338  -0.6007
 -0.5867  -0.5461  -0.4875  -0.4766  -0.4438  -0.4353  -0.4330  -0.4082
 -0.3950  -0.3595  -0.3418  -0.3392  -0.2813  -0.2356  -0.2027
 -- Virtual --
 -0.0214   0.0024   0.0182   0.0256   0.0326   0.0465   0.0478   0.0483
  0.0687   0.0708   0.0734   0.0760   0.0963   0.0982   0.1159   0.1167
  0.1195   0.1355   0.1434   0.1445   0.1595   0.1682   0.1725   0.1740
  0.1781   0.1848   0.1933   0.1967   0.2029   0.2060   0.2083   0.2089
  0.2244   0.2299   0.2394   0.2423   0.2433   0.2521   0.2590   0.2673
  0.2772   0.2783   0.2846   0.3007   0.3037   0.3107   0.3246   0.3403
  0.3589   0.3643   0.3794   0.3981   0.4316   0.4513   0.5184   0.5797
  0.6222   0.6778   0.6794   0.7007   0.7251   0.7253   0.7333   0.7385
  0.7420   0.7574   0.7655   0.7799   0.7942   0.7996   0.8177   0.8560
  0.8900   0.8994   0.9103   0.9420   0.9462   0.9569   0.9605   0.9889
  1.0035   1.0266   1.0433   1.0492   1.0937   1.1119   1.1179   1.1769
  1.1776   1.2061   1.2246   1.2323   1.2477   1.3133   1.3250   1.3428
  1.3661   1.4116   1.4170   1.4515   1.4600   1.4662   1.4940   1.4998
  1.5460   1.5888   1.6507   1.7688   1.8345   1.8832   1.8952   1.9097
  1.9417   1.9858   1.9889   2.0037   2.0559   2.0896   2.1412   2.1661
  2.1710   2.1779   2.2447   2.2543   2.2659   2.2992   2.3159   2.3748
  2.4147   2.4541   2.5390   2.5618   2.6385   2.6504   2.6635   2.6902
  2.7278   2.8069   2.8420   2.8527   2.9491   2.9807   3.0950   3.2467
  3.4353   4.1592   4.2586   4.2897   4.3212   4.3645   4.4013   4.4839
  4.5235   4.7924
 --------------------------------------------------------------
 
          Ground-State Mulliken Net Atomic Charges

     Atom                 Charge (a.u.)
  ----------------------------------------
      1 C                    -0.005973
      2 C                    -0.512547
      3 C                    -0.154242
      4 C                    -1.172257
      5 C                     1.591770
      6 C                    -0.689364
      7 N                    -0.396544
      8 C                    -0.083295
      9 C                    -0.204017
     10 H                     0.425096
     11 H                     0.205117
     12 H                     0.207241
     13 H                     0.194440
     14 H                     0.194452
     15 H                     0.197023
     16 H                     0.203100
  ----------------------------------------
  Sum of atomic charges =     0.000000

 -----------------------------------------------------------------
                    Cartesian Multipole Moments
 -----------------------------------------------------------------
    Charge (ESU x 10^10)
                -0.0000
    Dipole Moment (Debye)
         X      -1.5961      Y       1.8051      Z       0.0007
       Tot       2.4095
    Quadrupole Moments (Debye-Ang)
        XX     -44.6379     XY      -4.2286     YY     -43.8905
        XZ      -0.0013     YZ       0.0024     ZZ     -58.5602
    Octopole Moments (Debye-Ang^2)
       XXX     -14.9445    XXY       9.8783    XYY      -8.6826
       YYY      11.8376    XXZ       0.0012    XYZ      -0.0047
       YYZ       0.0036    XZZ      -2.1325    YZZ       2.4205
       ZZZ      -0.0028
    Hexadecapole Moments (Debye-Ang^3)
      XXXX    -805.2578   XXXY     -23.5163   XXYY    -192.9810
      XYYY     -17.3909   YYYY    -363.5983   XXXZ       0.0053
      XXYZ       0.0079   XYYZ      -0.0060   YYYZ       0.0076
      XXZZ    -188.0436   XYZZ      -2.1897   YYZZ     -92.8262
      XZZZ       0.0093   YZZZ      -0.0028   ZZZZ     -71.2151
 -----------------------------------------------------------------
 Calculating analytic gradient of the CIS energy
 CIS relaxed dipole moment
            1
    1  -0.9000566
    2   0.5305306
    3   0.0002277
	Magnitude:	 1.045 au	 2.656 Debye
 CIS 3 State Energy is -363.5043102619
 Gradient of the state energy (including CIS Excitation Energy)
            1           2           3           4           5           6
    1  -0.0146735  -0.0110464  -0.0094478   0.0021199   0.0062768   0.0197265
    2   0.0131596  -0.0318211  -0.0134814  -0.0286644   0.0266430   0.0152945
    3   0.0000000   0.0000013  -0.0000063   0.0000023  -0.0000052  -0.0000034
            7           8           9          10          11          12
    1  -0.0276169   0.0158941   0.0349870  -0.0131539   0.0005707  -0.0027106
    2  -0.0557231  -0.0004211   0.0484373   0.0257424  -0.0017351   0.0051200
    3  -0.0000152   0.0000201  -0.0000140   0.0000198  -0.0000015  -0.0000013
           13          14          15          16
    1   0.0003870  -0.0028393   0.0003826   0.0011438
    2  -0.0009506  -0.0016944   0.0002777  -0.0001832
    3   0.0000005   0.0000020  -0.0000003   0.0000013
 Gradient time:  CPU 21.68 s  wall 5.45 s
 Geometry Optimization Parameters
   NAtoms,    NIC,     NZ,  NCons,   NDum,   NFix, NCnnct, MaxDiis
       16     116       0       0       0       0       0       0

 Cartesian Hessian Update
 Hessian updated using BFGS update


** GEOMETRY OPTIMIZATION IN DELOCALIZED INTERNAL COORDINATES **
   Searching for a Minimum

   Optimization Cycle:   2

                       Coordinates (Angstroms)
     ATOM                X               Y               Z
      1  C         2.1785825633   -0.7004585207   -0.0000392339
      2  C         2.1297568216    0.6966561779   -0.0000198301
      3  C         0.9057685937    1.4028117499    0.0000156732
      4  C        -0.2597971097    0.6611276588    0.0000991946
      5  C        -0.2339343353   -0.7562955116    0.0000189679
      6  C         0.9967114433   -1.4433404740   -0.0000698919
      7  N        -1.5837795048    1.0723435208    0.0000076422
      8  C        -1.5934932424   -1.1606047508    0.0001089343
      9  C        -2.3790707821    0.0069421850   -0.0000124803
     10  H        -1.9291491064    2.0573814091    0.0005425845
     11  H        -1.9720766287   -2.1768579970    0.0000193172
     12  H        -3.4567111085    0.1450308476   -0.0000622597
     13  H         3.0608100230    1.2560531835   -0.0000200900
     14  H         0.8732780632    2.4871621834    0.0000438201
     15  H         3.1404195640   -1.2056472306   -0.0000431674
     16  H         1.0257796972   -2.5297519385   -0.0000631997
   Point Group: c1    Number of degrees of freedom:    42


   Energy is   -363.504310262

 Hessian updated using BFGS update

 40 Hessian modes will be used to form the next step
  Hessian Eigenvalues:
     0.018594    0.019738    0.020011    0.020794    0.021683    0.022200
     0.022636    0.023004    0.023236    0.023608    0.023851    0.023984
     0.024127    0.159695    0.160000    0.160000    0.160000    0.162403
     0.218927    0.221181    0.226619    0.244486    0.248865    0.334167
     0.357166    0.357448    0.357867    0.359981    0.364254    0.369304
     0.374370    0.385121    0.426864    0.446553    0.460000    0.467915
     0.473460    0.476348    0.495660    1.129139

 Minimum search - taking simple RFO step
 Searching for Lamda that Minimizes Along All modes
 Value Taken    Lamda =  -0.00846043
 Step Taken.  Stepsize is  0.103010

                             Maximum     Tolerance    Cnvgd?
         Gradient           0.044579      0.000300      NO
         Displacement       0.051030      0.001200      NO
         Energy change     -0.002380      0.000001      NO


 New Cartesian Coordinates Obtained by Inverse Iteration

 Displacement from previous Coordinates is:  0.161955
 ----------------------------------------------------------------
             Standard Nuclear Orientation (Angstroms)
    I     Atom           X                Y                Z
 ----------------------------------------------------------------
    1      C       2.1837085736    -0.7002804592    -0.0000597411
    2      C       2.1515276180     0.7165777875    -0.0000422548
    3      C       0.9195480320     1.4284268729     0.0000337897
    4      C      -0.2521413682     0.6753468884     0.0001467858
    5      C      -0.2456366399    -0.7644540131     0.0000229531
    6      C       0.9846699156    -1.4544201634    -0.0000883509
    7      N      -1.5804318028     1.0719619528     0.0001070132
    8      C      -1.6077339000    -1.1745145179     0.0001534043
    9      C      -2.3972780130    -0.0050893061    -0.0000785682
   10      H      -1.9178639953     2.0520245531     0.0005157386
   11      H      -1.9886464861    -2.1909775807     0.0000888568
   12      H      -3.4759485542     0.1243294750    -0.0001738300
   13      H       3.0853096688     1.2740500694    -0.0000503646
   14      H       0.8923978815     2.5149534432     0.0000795019
   15      H       3.1425891275    -1.2133922267    -0.0000568533
   16      H       1.0090248939    -2.5419902825    -0.0000720993
 ----------------------------------------------------------------
 Molecular Point Group                 C1    NOp =  1
 Largest Abelian Subgroup              C1    NOp =  1
 Nuclear Repulsion Energy =         397.77529216 hartrees
 There are       31 alpha and       31 beta electrons
 Applying Cartesian multipole field
    Component          Value
    ---------          -----
     (2,0,0)        1.00000E-11
     (0,2,0)        2.00000E-11
     (0,0,2)       -3.00000E-11
 Nucleus-field energy     =     0.0000000119 hartrees
 Requested basis set is 6-31+G(d)
 There are 59 shells and 185 basis functions
 A cutoff of  1.0D-12 yielded   1657 shell pairs
 There are     17105 function pairs
 Smallest overlap matrix eigenvalue = 1.33E-06
 Guess MOs from SCF MO coefficient file

 -----------------------------------------------------------------------
  General SCF calculation program by
  Eric Jon Sundstrom, Paul Horn, Yuezhi Mao, Dmitri Zuev, Alec White,
  David Stuck, Shaama M.S., Shane Yost, Joonho Lee, David Small,
  Daniel Levine, Susi Lehtola, Hugh Burton, Evgeny Epifanovsky,
  Bang C. Huynh
 -----------------------------------------------------------------------
 Exchange:     0.2000 Hartree-Fock + 0.0800 Slater + 0.7200 B88
 Correlation:  0.1900 PW92 + 0.8100 PW91
 Using SG-1 standard quadrature grid
 using 4 threads for integral computing
 -------------------------------------------------------
 OpenMP Integral computing Module                
 Release: version 1.0, May 2013, Q-Chem Inc. Pittsburgh 
 -------------------------------------------------------
 A restricted SCF calculation will be
 performed using DIIS
 SCF converges when DIIS error is below 1.0e-08
 ---------------------------------------
  Cycle       Energy         DIIS error
 ---------------------------------------
    1    -363.6866123133      6.33e-04  
    2    -363.6882570136      1.64e-04  
    3    -363.6882484524      1.67e-04  
    4    -363.6883696652      3.41e-05  
    5    -363.6883746335      1.06e-05  
    6    -363.6883750904      4.80e-06  
    7    -363.6883751960      8.50e-07  
    8    -363.6883751981      5.69e-07  
    9    -363.6883751994      5.86e-08  
   10    -363.6883751994      4.25e-08  
   11    -363.6883751994      7.95e-09  Convergence criterion met
 ---------------------------------------
 SCF time:   CPU 32.15s  wall 8.00s 
 SCF   energy in the final basis set =     -363.6883751994
 Total energy in the final basis set =     -363.6883751994
 
 Direct TDDFT/TDA calculation will be performed
 Exchange:     0.2000 Hartree-Fock + 0.0800 Slater + 0.7200 B88
 Correlation:  0.1900 PW92 + 0.8100 PW91
 Using SG-1 standard quadrature grid
 Singlet excitation energies requested
 CIS energy converged when residual is below 10e- 6
 ---------------------------------------------------
 Iter    Rts Conv    Rts Left    Ttl Dev     Max Dev
 ---------------------------------------------------
   1         0           3      0.003786    0.001888
   2         0           3      0.002212    0.001526
   3         0           3      0.000613    0.000463
   4         0           3      0.000188    0.000135
   5         1           2      0.000054    0.000036
   6         1           2      0.000016    0.000011
   7         1           2      0.000005    0.000003
   8         3           0      0.000002    0.000001    Roots Converged
 ---------------------------------------------------
 
 ---------------------------------------------------
         TDDFT/TDA Excitation Energies              
 ---------------------------------------------------

 Excited state   1: excitation energy (eV) =    4.6851
 Total energy for state  1:                  -363.51620053 au
    Multiplicity: Singlet
    Trans. Mom.: -0.7796 X   0.6545 Y  -0.0000 Z
    Strength   :     0.1189264525
    D(   30) --> V(    3) amplitude = -0.2353
    D(   31) --> V(    1) amplitude =  0.9076

 Excited state   2: excitation energy (eV) =    4.8416
 Total energy for state  2:                  -363.51044928 au
    Multiplicity: Singlet
    Trans. Mom.:  0.0877 X   0.2347 Y   0.0000 Z
    Strength   :     0.0074436486
    D(   30) --> V(    1) amplitude =  0.7460
    D(   31) --> V(    3) amplitude =  0.6365

 Excited state   3: excitation energy (eV) =    4.8902
 Total energy for state  3:                  -363.50866347 au
    Multiplicity: Singlet
    Trans. Mom.: -0.0000 X  -0.0000 Y   0.1263 Z
    Strength   :     0.0019104322
    D(   31) --> V(    2) amplitude =  0.9961
 
 ---------------------------------------------------
 Calculating Relaxed Density
 ---------------------------------------------------
 Iter    Rts Conv    Rts Left    Ttl Dev     Max Dev
 ---------------------------------------------------
   1         0           3      0.001618    0.000844
   2         0           3      0.000585    0.000292
   3         0           3      0.000150    0.000072
   4         0           3      0.000043    0.000022
   5         1           2      0.000008    0.000004
   6         1           2      0.000003    0.000002
   7         3           0      0.000000    0.000000    Roots Converged
 ---------------------------------------------------
  SETman timing summary (seconds)
  CPU time               114.25s
  System time              0.00s
  Wall time               28.70s
 
 --------------------------------------------------------------
 
                    Orbital Energies (a.u.)
 --------------------------------------------------------------
 
 Alpha MOs
 -- Occupied --
-14.3852 -10.2172 -10.2140 -10.1858 -10.1806 -10.1803 -10.1798 -10.1769
-10.1705  -0.9944  -0.8409  -0.7845  -0.7424  -0.7167  -0.6317  -0.6005
 -0.5850  -0.5435  -0.4897  -0.4743  -0.4412  -0.4345  -0.4287  -0.4092
 -0.3967  -0.3589  -0.3405  -0.3373  -0.2825  -0.2315  -0.2049
 -- Virtual --
 -0.0241   0.0039   0.0141   0.0257   0.0321   0.0455   0.0461   0.0476
  0.0687   0.0708   0.0736   0.0753   0.0954   0.0985   0.1153   0.1162
  0.1197   0.1349   0.1439   0.1442   0.1592   0.1675   0.1719   0.1721
  0.1770   0.1836   0.1917   0.1937   0.2018   0.2044   0.2062   0.2072
  0.2231   0.2283   0.2374   0.2424   0.2433   0.2497   0.2586   0.2660
  0.2763   0.2773   0.2826   0.2970   0.2997   0.3064   0.3217   0.3356
  0.3525   0.3618   0.3748   0.3942   0.4227   0.4465   0.5115   0.5678
  0.6054   0.6778   0.6784   0.7012   0.7186   0.7248   0.7292   0.7353
  0.7388   0.7562   0.7594   0.7790   0.7932   0.7932   0.8151   0.8538
  0.8884   0.8980   0.9086   0.9413   0.9460   0.9559   0.9599   0.9875
  0.9969   1.0299   1.0462   1.0496   1.0924   1.1096   1.1130   1.1703
  1.1763   1.2011   1.2238   1.2338   1.2422   1.3147   1.3188   1.3422
  1.3615   1.4085   1.4098   1.4417   1.4578   1.4681   1.4904   1.4941
  1.5383   1.5775   1.6428   1.7713   1.8218   1.8792   1.8905   1.9022
  1.9241   1.9764   1.9829   1.9999   2.0411   2.0624   2.1199   2.1460
  2.1522   2.1691   2.2352   2.2373   2.2539   2.2730   2.3009   2.3590
  2.4040   2.4446   2.5246   2.5444   2.6272   2.6374   2.6431   2.6728
  2.7113   2.7897   2.8245   2.8350   2.9471   2.9642   3.0799   3.2274
  3.3946   4.1482   4.2435   4.2889   4.3178   4.3580   4.3976   4.4770
  4.5186   4.7757
 --------------------------------------------------------------
 
          Ground-State Mulliken Net Atomic Charges

     Atom                 Charge (a.u.)
  ----------------------------------------
      1 C                    -0.018632
      2 C                    -0.488819
      3 C                    -0.147896
      4 C                    -1.115967
      5 C                     1.497031
      6 C                    -0.713197
      7 N                    -0.404793
      8 C                    -0.030066
      9 C                    -0.213340
     10 H                     0.424915
     11 H                     0.207305
     12 H                     0.209676
     13 H                     0.196838
     14 H                     0.196664
     15 H                     0.196484
     16 H                     0.203797
  ----------------------------------------
  Sum of atomic charges =     0.000000

 -----------------------------------------------------------------
                    Cartesian Multipole Moments
 -----------------------------------------------------------------
    Charge (ESU x 10^10)
                 0.0000
    Dipole Moment (Debye)
         X      -1.6205      Y       1.7280      Z       0.0005
       Tot       2.3690
    Quadrupole Moments (Debye-Ang)
        XX     -44.5694     XY      -3.7908     YY     -43.7883
        XZ      -0.0007     YZ       0.0019     ZZ     -58.8399
    Octopole Moments (Debye-Ang^2)
       XXX     -15.5145    XXY       9.4927    XYY      -8.4158
       YYY      11.2996    XXZ      -0.0009    XYZ      -0.0037
       YYZ       0.0032    XZZ      -2.3010    YZZ       2.2994
       ZZZ      -0.0039
    Hexadecapole Moments (Debye-Ang^3)
      XXXX    -811.1094   XXXY     -23.5791   XXYY    -195.5194
      XYYY     -18.9502   YYYY    -369.2760   XXXZ       0.0134
      XXYZ       0.0050   XYYZ      -0.0045   YYYZ       0.0040
      XXZZ    -190.6439   XYZZ      -3.2976   YYZZ     -94.4844
      XZZZ       0.0122   YZZZ      -0.0054   ZZZZ     -71.9556
 -----------------------------------------------------------------
 Calculating analytic gradient of the CIS energy
 CIS relaxed dipole moment
            1
    1   2.5308677
    2  -2.6318382
    3  -0.0004487
	Magnitude:	 3.651 au	 9.281 Debye
 CIS 3 State Energy is -363.5086634683
 Gradient of the state energy (including CIS Excitation Energy)
            1           2           3           4           5           6
    1   0.0115865   0.0082213   0.0065926  -0.0083848   0.0039532  -0.0118726
    2  -0.0069312   0.0165904   0.0087701   0.0061444  -0.0090302  -0.0091883
    3   0.0000081  -0.0000049  -0.0000086   0.0000179  -0.0000204  -0.0000177
            7           8           9          10          11          12
    1   0.0138123  -0.0135384  -0.0216468   0.0084797   0.0000373   0.0010293
    2   0.0383182   0.0055878  -0.0305731  -0.0176888  -0.0009332  -0.0019086
    3   0.0000096   0.0000496  -0.0000425   0.0000072  -0.0000030  -0.0000028
           13          14          15          16
    1   0.0012099   0.0002142   0.0012147  -0.0009081
    2   0.0005823   0.0019474  -0.0004139  -0.0012732
    3   0.0000003   0.0000015   0.0000025   0.0000030
 Gradient time:  CPU 21.75 s  wall 5.47 s
 Geometry Optimization Parameters
   NAtoms,    NIC,     NZ,  NCons,   NDum,   NFix, NCnnct, MaxDiis
       16     116       0       0       0       0       0       0

 Cartesian Hessian Update
 Hessian updated using BFGS update


** GEOMETRY OPTIMIZATION IN DELOCALIZED INTERNAL COORDINATES **
   Searching for a Minimum

   Optimization Cycle:   3

                       Coordinates (Angstroms)
     ATOM                X               Y               Z
      1  C         2.1837085736   -0.7002804592   -0.0000597411
      2  C         2.1515276180    0.7165777875   -0.0000422548
      3  C         0.9195480320    1.4284268729    0.0000337897
      4  C        -0.2521413682    0.6753468884    0.0001467858
      5  C        -0.2456366399   -0.7644540131    0.0000229531
      6  C         0.9846699156   -1.4544201634   -0.0000883509
      7  N        -1.5804318028    1.0719619528    0.0001070132
      8  C        -1.6077339000   -1.1745145179    0.0001534043
      9  C        -2.3972780130   -0.0050893061   -0.0000785682
     10  H        -1.9178639953    2.0520245531    0.0005157386
     11  H        -1.9886464861   -2.1909775807    0.0000888568
     12  H        -3.4759485542    0.1243294750   -0.0001738300
     13  H         3.0853096688    1.2740500694   -0.0000503646
     14  H         0.8923978815    2.5149534432    0.0000795019
     15  H         3.1425891275   -1.2133922267   -0.0000568533
     16  H         1.0090248939   -2.5419902825   -0.0000720993
   Point Group: c1    Number of degrees of freedom:    42


   Energy is   -363.508663468

 Hessian updated using BFGS update

 41 Hessian modes will be used to form the next step
  Hessian Eigenvalues:
     0.018594    0.019738    0.020011    0.020794    0.021683    0.022200
     0.022636    0.023004    0.023236    0.023608    0.023851    0.023984
     0.024127    0.159318    0.159998    0.160000    0.160000    0.160000
     0.162176    0.220121    0.221514    0.226414    0.240425    0.247415
     0.343591    0.357162    0.357440    0.357865    0.359533    0.364264
     0.367462    0.375032    0.388171    0.426922    0.447433    0.459922
     0.468064    0.473561    0.476352    0.495966    1.739467

 Minimum search - taking simple RFO step
 Searching for Lamda that Minimizes Along All modes
 Value Taken    Lamda =  -0.00190896
 Step Taken.  Stepsize is  0.041315

                             Maximum     Tolerance    Cnvgd?
         Gradient           0.021650      0.000300      NO
         Displacement       0.021012      0.001200      NO
         Energy change     -0.004353      0.000001      NO


 New Cartesian Coordinates Obtained by Inverse Iteration

 Displacement from previous Coordinates is:  0.066132
 ----------------------------------------------------------------
             Standard Nuclear Orientation (Angstroms)
    I     Atom           X                Y                Z
 ----------------------------------------------------------------
    1      C       2.1737599534    -0.6986550876    -0.0000004867
    2      C       2.1402770027     0.7111390399    -0.0000041834
    3      C       0.9162250053     1.4237501153     0.0000176893
    4      C      -0.2499836638     0.6746590653     0.0000765283
    5      C      -0.2443420611    -0.7627147671     0.0000170105
    6      C       0.9843043558    -1.4502867437     0.0000156678
    7      N      -1.5770324057     1.0702774833     0.0000302048
    8      C      -1.5998250292    -1.1747221503    -0.0000914152
    9      C      -2.3844294894    -0.0029795426     0.0001554646
   10      H      -1.9211124336     2.0535073806     0.0003297386
   11      H      -1.9832786278    -2.1882525970    -0.0002209163
   12      H      -3.4625718374     0.1265123254     0.0002414085
   13      H       3.0723592660     1.2682935332    -0.0000272875
   14      H       0.8944105093     2.5087331454     0.0000177953
   15      H       3.1313727005    -1.2106008313    -0.0000177753
   16      H       1.0129617062    -2.5361078760    -0.0000134624
 ----------------------------------------------------------------
 Molecular Point Group                 C1    NOp =  1
 Largest Abelian Subgroup              C1    NOp =  1
 Nuclear Repulsion Energy =         399.09436609 hartrees
 There are       31 alpha and       31 beta electrons
 Applying Cartesian multipole field
    Component          Value
    ---------          -----
     (2,0,0)        1.00000E-11
     (0,2,0)        2.00000E-11
     (0,0,2)       -3.00000E-11
 Nucleus-field energy     =     0.0000000118 hartrees
 Requested basis set is 6-31+G(d)
 There are 59 shells and 185 basis functions
 A cutoff of  1.0D-12 yielded   1657 shell pairs
 There are     17105 function pairs
 Smallest overlap matrix eigenvalue = 1.29E-06
 Guess MOs from SCF MO coefficient file

 -----------------------------------------------------------------------
  General SCF calculation program by
  Eric Jon Sundstrom, Paul Horn, Yuezhi Mao, Dmitri Zuev, Alec White,
  David Stuck, Shaama M.S., Shane Yost, Joonho Lee, David Small,
  Daniel Levine, Susi Lehtola, Hugh Burton, Evgeny Epifanovsky,
  Bang C. Huynh
 -----------------------------------------------------------------------
 Exchange:     0.2000 Hartree-Fock + 0.0800 Slater + 0.7200 B88
 Correlation:  0.1900 PW92 + 0.8100 PW91
 Using SG-1 standard quadrature grid
 using 4 threads for integral computing
 -------------------------------------------------------
 OpenMP Integral computing Module                
 Release: version 1.0, May 2013, Q-Chem Inc. Pittsburgh 
 -------------------------------------------------------
 A restricted SCF calculation will be
 performed using DIIS
 SCF converges when DIIS error is below 1.0e-08
 ---------------------------------------
  Cycle       Energy         DIIS error
 ---------------------------------------
    1    -363.6883673471      1.67e-04  
    2    -363.6884985657      6.42e-05  
    3    -363.6885010365      5.82e-05  
    4    -363.6885156746      2.08e-05  
    5    -363.6885176500      3.26e-06  
    6    -363.6885176877      1.73e-06  
    7    -363.6885177012      3.82e-07  
    8    -363.6885177018      2.10e-07  
    9    -363.6885177020      3.16e-08  
   10    -363.6885177020      2.09e-08  
   11    -363.6885177020      3.82e-09  Convergence criterion met
 ---------------------------------------
 SCF time:   CPU 32.31s  wall 8.00s 
 SCF   energy in the final basis set =     -363.6885177020
 Total energy in the final basis set =     -363.6885177020
 
 Direct TDDFT/TDA calculation will be performed
 Exchange:     0.2000 Hartree-Fock + 0.0800 Slater + 0.7200 B88
 Correlation:  0.1900 PW92 + 0.8100 PW91
 Using SG-1 standard quadrature grid
 Singlet excitation energies requested
 CIS energy converged when residual is below 10e- 6
 ---------------------------------------------------
 Iter    Rts Conv    Rts Left    Ttl Dev     Max Dev
 ---------------------------------------------------
   1         0           3      0.003785    0.001886
   2         0           3      0.002272    0.001594
   3         0           3      0.000636    0.000494
   4         0           3      0.000186    0.000136
   5         1           2      0.000051    0.000035
   6         1           2      0.000016    0.000011
   7         1           2      0.000005    0.000003
   8         3           0      0.000002    0.000001    Roots Converged
 ---------------------------------------------------
 
 ---------------------------------------------------
         TDDFT/TDA Excitation Energies              
 ---------------------------------------------------

 Excited state   1: excitation energy (eV) =    4.7082
 Total energy for state  1:                  -363.51549621 au
    Multiplicity: Singlet
    Trans. Mom.: -0.8129 X   0.6426 Y   0.0001 Z
    Strength   :     0.1238525930
    D(   30) --> V(    3) amplitude =  0.2348
    D(   31) --> V(    1) amplitude =  0.9057

 Excited state   2: excitation energy (eV) =    4.8511
 Total energy for state  2:                  -363.51024267 au
    Multiplicity: Singlet
    Trans. Mom.:  0.0005 X  -0.0005 Y   0.1248 Z
    Strength   :     0.0018520548
    D(   31) --> V(    2) amplitude =  0.9962

 Excited state   3: excitation energy (eV) =    4.8886
 Total energy for state  3:                  -363.50886501 au
    Multiplicity: Singlet
    Trans. Mom.:  0.0351 X   0.2387 Y   0.0001 Z
    Strength   :     0.0069692968
    D(   30) --> V(    1) amplitude =  0.7423
    D(   31) --> V(    3) amplitude = -0.6367
 
 ---------------------------------------------------
 Calculating Relaxed Density
 ---------------------------------------------------
 Iter    Rts Conv    Rts Left    Ttl Dev     Max Dev
 ---------------------------------------------------
   1         0           3      0.001615    0.000829
   2         0           3      0.000586    0.000292
   3         0           3      0.000151    0.000072
   4         0           3      0.000043    0.000021
   5         1           2      0.000008    0.000005
   6         1           2      0.000003    0.000001
   7         3           0      0.000000    0.000000    Roots Converged
 ---------------------------------------------------
  SETman timing summary (seconds)
  CPU time               114.58s
  System time              0.00s
  Wall time               28.78s
 
 --------------------------------------------------------------
 
                    Orbital Energies (a.u.)
 --------------------------------------------------------------
 
 Alpha MOs
 -- Occupied --
-14.3855 -10.2158 -10.2123 -10.1838 -10.1786 -10.1780 -10.1775 -10.1743
-10.1687  -0.9970  -0.8434  -0.7855  -0.7441  -0.7169  -0.6323  -0.6007
 -0.5858  -0.5444  -0.4892  -0.4746  -0.4425  -0.4352  -0.4304  -0.4094
 -0.3957  -0.3582  -0.3406  -0.3389  -0.2830  -0.2322  -0.2041
 -- Virtual --
 -0.0226   0.0032   0.0159   0.0257   0.0323   0.0464   0.0466   0.0477
  0.0687   0.0708   0.0736   0.0757   0.0955   0.0985   0.1155   0.1165
  0.1198   0.1352   0.1436   0.1442   0.1595   0.1680   0.1725   0.1729
  0.1779   0.1840   0.1925   0.1951   0.2019   0.2053   0.2070   0.2077
  0.2240   0.2293   0.2385   0.2424   0.2438   0.2506   0.2591   0.2664
  0.2766   0.2778   0.2837   0.2997   0.3014   0.3083   0.3231   0.3380
  0.3548   0.3633   0.3774   0.3958   0.4271   0.4492   0.5147   0.5724
  0.6115   0.6778   0.6785   0.7013   0.7204   0.7248   0.7319   0.7387
  0.7388   0.7568   0.7623   0.7794   0.7940   0.7962   0.8175   0.8549
  0.8890   0.8988   0.9102   0.9412   0.9464   0.9568   0.9601   0.9878
  1.0000   1.0292   1.0445   1.0498   1.0927   1.1109   1.1150   1.1722
  1.1788   1.2030   1.2247   1.2335   1.2440   1.3143   1.3230   1.3423
  1.3644   1.4103   1.4124   1.4440   1.4577   1.4678   1.4919   1.4967
  1.5409   1.5796   1.6478   1.7712   1.8266   1.8852   1.8925   1.9080
  1.9281   1.9798   1.9880   2.0039   2.0503   2.0723   2.1308   2.1563
  2.1573   2.1716   2.2398   2.2438   2.2581   2.2840   2.3082   2.3679
  2.4111   2.4500   2.5307   2.5523   2.6312   2.6461   2.6484   2.6802
  2.7183   2.7976   2.8336   2.8412   2.9510   2.9721   3.0905   3.2347
  3.4127   4.1515   4.2513   4.2915   4.3189   4.3613   4.3995   4.4803
  4.5211   4.7817
 --------------------------------------------------------------
 
          Ground-State Mulliken Net Atomic Charges

     Atom                 Charge (a.u.)
  ----------------------------------------
      1 C                    -0.013748
      2 C                    -0.493328
      3 C                    -0.135419
      4 C                    -1.112650
      5 C                     1.490219
      6 C                    -0.730382
      7 N                    -0.400556
      8 C                    -0.018251
      9 C                    -0.217436
     10 H                     0.424573
     11 H                     0.207173
     12 H                     0.208232
     13 H                     0.195686
     14 H                     0.196709
     15 H                     0.195822
     16 H                     0.203356
  ----------------------------------------
  Sum of atomic charges =     0.000000

 -----------------------------------------------------------------
                    Cartesian Multipole Moments
 -----------------------------------------------------------------
    Charge (ESU x 10^10)
                -0.0000
    Dipole Moment (Debye)
         X      -1.6303      Y       1.7553      Z       0.0005
       Tot       2.3955
    Quadrupole Moments (Debye-Ang)
        XX     -44.6736     XY      -3.8638     YY     -43.7555
        XZ      -0.0015     YZ       0.0017     ZZ     -58.7093
    Octopole Moments (Debye-Ang^2)
       XXX     -15.4665    XXY       9.5511    XYY      -8.5207
       YYY      11.4635    XXZ       0.0019    XYZ      -0.0035
       YYZ      -0.0001    XZZ      -2.2414    YZZ       2.3225
       ZZZ      -0.0045
    Hexadecapole Moments (Debye-Ang^3)
      XXXX    -807.1438   XXXY     -23.6206   XXYY    -193.8336
      XYYY     -18.7466   YYYY    -367.5984   XXXZ      -0.0064
      XXYZ       0.0053   XYYZ      -0.0012   YYYZ       0.0034
      XXZZ    -188.8909   XYZZ      -3.1761   YYZZ     -93.9659
      XZZZ       0.0068   YZZZ      -0.0049   ZZZZ     -71.6103
 -----------------------------------------------------------------
 Calculating analytic gradient of the CIS energy
 CIS relaxed dipole moment
            1
    1  -0.8533555
    2   0.5180225
    3   0.0000407
	Magnitude:	 0.998 au	 2.537 Debye
 CIS 3 State Energy is -363.5088650082
 Gradient of the state energy (including CIS Excitation Energy)
            1           2           3           4           5           6
    1  -0.0089234  -0.0058929  -0.0103079   0.0093798  -0.0002526   0.0117260
    2   0.0081934  -0.0212042  -0.0077447  -0.0130305   0.0156899   0.0084897
    3  -0.0000048   0.0000052  -0.0000056  -0.0000034   0.0000159   0.0000059
            7           8           9          10          11          12
    1  -0.0205245   0.0158438   0.0250227  -0.0115284  -0.0002552  -0.0028527
    2  -0.0484606  -0.0097121   0.0422805   0.0243510  -0.0011513   0.0030692
    3  -0.0000194  -0.0000208   0.0000182   0.0000103  -0.0000034   0.0000020
           13          14          15          16
    1  -0.0000972  -0.0013312  -0.0002762   0.0002698
    2   0.0001267  -0.0010554   0.0001172   0.0000411
    3   0.0000006   0.0000009  -0.0000010  -0.0000006
 Gradient time:  CPU 21.66 s  wall 5.44 s
 Geometry Optimization Parameters
   NAtoms,    NIC,     NZ,  NCons,   NDum,   NFix, NCnnct, MaxDiis
       16     116       0       0       0       0       0       0

 Cartesian Hessian Update
 Hessian updated using BFGS update


** GEOMETRY OPTIMIZATION IN DELOCALIZED INTERNAL COORDINATES **
   Searching for a Minimum

   Optimization Cycle:   4

                       Coordinates (Angstroms)
     ATOM                X               Y               Z
      1  C         2.1737599534   -0.6986550876   -0.0000004867
      2  C         2.1402770027    0.7111390399   -0.0000041834
      3  C         0.9162250053    1.4237501153    0.0000176893
      4  C        -0.2499836638    0.6746590653    0.0000765283
      5  C        -0.2443420611   -0.7627147671    0.0000170105
      6  C         0.9843043558   -1.4502867437    0.0000156678
      7  N        -1.5770324057    1.0702774833    0.0000302048
      8  C        -1.5998250292   -1.1747221503   -0.0000914152
      9  C        -2.3844294894   -0.0029795426    0.0001554646
     10  H        -1.9211124336    2.0535073806    0.0003297386
     11  H        -1.9832786278   -2.1882525970   -0.0002209163
     12  H        -3.4625718374    0.1265123254    0.0002414085
     13  H         3.0723592660    1.2682935332   -0.0000272875
     14  H         0.8944105093    2.5087331454    0.0000177953
     15  H         3.1313727005   -1.2106008313   -0.0000177753
     16  H         1.0129617062   -2.5361078760   -0.0000134624
   Point Group: c1    Number of degrees of freedom:    42


   Energy is   -363.508865008

 Hessian updated using BFGS update

 41 Hessian modes will be used to form the next step
  Hessian Eigenvalues:
     0.018593    0.019738    0.020011    0.020794    0.021683    0.022200
     0.022636    0.023004    0.023236    0.023608    0.023851    0.023984
     0.024127    0.158876    0.159745    0.160000    0.160000    0.160025
     0.162150    0.220031    0.221752    0.227031    0.240509    0.247159
     0.327778    0.357159    0.357440    0.357875    0.359594    0.364073
     0.366144    0.373855    0.378265    0.426794    0.443643    0.459020
     0.464791    0.473604    0.475864    0.495442    3.909747

 Minimum search - taking simple RFO step
 Searching for Lamda that Minimizes Along All modes
 Value Taken    Lamda =  -0.00113142
 Step Taken.  Stepsize is  0.019342

                             Maximum     Tolerance    Cnvgd?
         Gradient           0.029868      0.000300      NO
         Displacement       0.008708      0.001200      NO
         Energy change     -0.000202      0.000001      NO


 New Cartesian Coordinates Obtained by Inverse Iteration

 Displacement from previous Coordinates is:  0.024835
 ----------------------------------------------------------------
             Standard Nuclear Orientation (Angstroms)
    I     Atom           X                Y                Z
 ----------------------------------------------------------------
    1      C       2.1723390592    -0.6974165202    -0.0000170909
    2      C       2.1413809940     0.7137117740    -0.0000059169
    3      C       0.9183244804     1.4256792737     0.0000565072
    4      C      -0.2496496063     0.6758203329     0.0001016427
    5      C      -0.2464268497    -0.7636725113     0.0000163656
    6      C       0.9825884330    -1.4501578294     0.0000082566
    7      N      -1.5751166574     1.0705076219     0.0000604258
    8      C      -1.6027660964    -1.1740410429    -0.0000625621
    9      C      -2.3871217965    -0.0061558843     0.0001301985
   10      H      -1.9153502557     2.0498655187     0.0002684037
   11      H      -1.9862007969    -2.1867897742    -0.0001551655
   12      H      -3.4644261019     0.1212668267     0.0001842713
   13      H       3.0741759324     1.2688761132    -0.0000419501
   14      H       0.8981311914     2.5105149259     0.0000650530
   15      H       3.1295627871    -1.2098494222    -0.0000542823
   16      H       1.0136502344    -2.5356069098    -0.0000281755
 ----------------------------------------------------------------
 Molecular Point Group                 C1    NOp =  1
 Largest Abelian Subgroup              C1    NOp =  1
 Nuclear Repulsion Energy =         398.98282588 hartrees
 There are       31 alpha and       31 beta electrons
 Applying Cartesian multipole field
    Component          Value
    ---------          -----
     (2,0,0)        1.00000E-11
     (0,2,0)        2.00000E-11
     (0,0,2)       -3.00000E-11
 Nucleus-field energy     =     0.0000000118 hartrees
 Requested basis set is 6-31+G(d)
 There are 59 shells and 185 basis functions
 A cutoff of  1.0D-12 yielded   1657 shell pairs
 There are     17105 function pairs
 Smallest overlap matrix eigenvalue = 1.30E-06
 Guess MOs from SCF MO coefficient file

 -----------------------------------------------------------------------
  General SCF calculation program by
  Eric Jon Sundstrom, Paul Horn, Yuezhi Mao, Dmitri Zuev, Alec White,
  David Stuck, Shaama M.S., Shane Yost, Joonho Lee, David Small,
  Daniel Levine, Susi Lehtola, Hugh Burton, Evgeny Epifanovsky,
  Bang C. Huynh
 -----------------------------------------------------------------------
 Exchange:     0.2000 Hartree-Fock + 0.0800 Slater + 0.7200 B88
 Correlation:  0.1900 PW92 + 0.8100 PW91
 Using SG-1 standard quadrature grid
 using 4 threads for integral computing
 -------------------------------------------------------
 OpenMP Integral computing Module                
 Release: version 1.0, May 2013, Q-Chem Inc. Pittsburgh 
 -------------------------------------------------------
 A restricted SCF calculation will be
 performed using DIIS
 SCF converges when DIIS error is below 1.0e-08
 ---------------------------------------
  Cycle       Energy         DIIS error
 ---------------------------------------
    1    -363.6892255884      9.18e-05  
    2    -363.6892703974      2.19e-05  
    3    -363.6892698684      2.42e-05  
    4    -363.6892721298      6.93e-06  
    5    -363.6892723001      3.01e-06  
    6    -363.6892723424      4.53e-07  
    7    -363.6892723433      2.11e-07  
    8    -363.6892723435      3.69e-08  
    9    -363.6892723435      1.78e-08  
   10    -363.6892723435      6.52e-09  Convergence criterion met
 ---------------------------------------
 SCF time:   CPU 29.31s  wall 8.00s 
 SCF   energy in the final basis set =     -363.6892723435
 Total energy in the final basis set =     -363.6892723435
 
 Direct TDDFT/TDA calculation will be performed
 Exchange:     0.2000 Hartree-Fock + 0.0800 Slater + 0.7200 B88
 Correlation:  0.1900 PW92 + 0.8100 PW91
 Using SG-1 standard quadrature grid
 Singlet excitation energies requested
 CIS energy converged when residual is below 10e- 6
 ---------------------------------------------------
 Iter    Rts Conv    Rts Left    Ttl Dev     Max Dev
 ---------------------------------------------------
   1         0           3      0.003785    0.001887
   2         0           3      0.002201    0.001515
   3         0           3      0.000624    0.000466
   4         0           3      0.000189    0.000134
   5         1           2      0.000054    0.000036
   6         1           2      0.000016    0.000010
   7         1           2      0.000005    0.000003
   8         3           0      0.000002    0.000001    Roots Converged
 ---------------------------------------------------
 
 ---------------------------------------------------
         TDDFT/TDA Excitation Energies              
 ---------------------------------------------------

 Excited state   1: excitation energy (eV) =    4.7271
 Total energy for state  1:                  -363.51555325 au
    Multiplicity: Singlet
    Trans. Mom.: -0.8001 X   0.6447 Y   0.0001 Z
    Strength   :     0.1222849553
    D(   30) --> V(    3) amplitude =  0.2394
    D(   31) --> V(    1) amplitude =  0.9066

 Excited state   2: excitation energy (eV) =    4.8802
 Total energy for state  2:                  -363.50992864 au
    Multiplicity: Singlet
    Trans. Mom.:  0.0855 X   0.2399 Y  -0.0001 Z
    Strength   :     0.0077571837
    D(   30) --> V(    1) amplitude =  0.7490
    D(   31) --> V(    3) amplitude = -0.6322

 Excited state   3: excitation energy (eV) =    4.8924
 Total energy for state  3:                  -363.50948078 au
    Multiplicity: Singlet
    Trans. Mom.:  0.0003 X  -0.0001 Y   0.1273 Z
    Strength   :     0.0019409056
    D(   31) --> V(    2) amplitude =  0.9962
 
 ---------------------------------------------------
 Calculating Relaxed Density
 ---------------------------------------------------
 Iter    Rts Conv    Rts Left    Ttl Dev     Max Dev
 ---------------------------------------------------
   1         0           3      0.001607    0.000834
   2         0           3      0.000583    0.000288
   3         0           3      0.000150    0.000071
   4         0           3      0.000043    0.000021
   5         1           2      0.000007    0.000004
   6         1           2      0.000003    0.000001
   7         3           0      0.000000    0.000000    Roots Converged
 ---------------------------------------------------
  SETman timing summary (seconds)
  CPU time               116.34s
  System time              0.00s
  Wall time               29.23s
 
 --------------------------------------------------------------
 
                    Orbital Energies (a.u.)
 --------------------------------------------------------------
 
 Alpha MOs
 -- Occupied --
-14.3848 -10.2157 -10.2126 -10.1839 -10.1788 -10.1782 -10.1777 -10.1743
-10.1689  -0.9961  -0.8429  -0.7861  -0.7434  -0.7177  -0.6322  -0.6010
 -0.5858  -0.5443  -0.4896  -0.4745  -0.4422  -0.4351  -0.4299  -0.4097
 -0.3963  -0.3583  -0.3405  -0.3385  -0.2834  -0.2314  -0.2050
 -- Virtual --
 -0.0227   0.0038   0.0156   0.0258   0.0322   0.0464   0.0467   0.0477
  0.0687   0.0708   0.0738   0.0757   0.0955   0.0985   0.1155   0.1164
  0.1200   0.1352   0.1442   0.1442   0.1598   0.1680   0.1726   0.1729
  0.1777   0.1841   0.1924   0.1950   0.2020   0.2052   0.2068   0.2077
  0.2241   0.2294   0.2383   0.2425   0.2439   0.2504   0.2594   0.2664
  0.2767   0.2778   0.2836   0.2997   0.3012   0.3084   0.3228   0.3374
  0.3540   0.3637   0.3774   0.3960   0.4269   0.4493   0.5144   0.5717
  0.6107   0.6777   0.6784   0.7014   0.7196   0.7247   0.7320   0.7384
  0.7389   0.7566   0.7614   0.7794   0.7940   0.7959   0.8170   0.8547
  0.8895   0.8990   0.9105   0.9412   0.9465   0.9565   0.9602   0.9877
  0.9997   1.0302   1.0467   1.0502   1.0928   1.1110   1.1145   1.1715
  1.1789   1.2029   1.2247   1.2335   1.2440   1.3148   1.3219   1.3419
  1.3642   1.4096   1.4121   1.4434   1.4577   1.4678   1.4920   1.4963
  1.5401   1.5798   1.6468   1.7731   1.8264   1.8856   1.8920   1.9087
  1.9273   1.9809   1.9881   2.0035   2.0494   2.0705   2.1308   2.1549
  2.1556   2.1736   2.2405   2.2431   2.2568   2.2808   2.3068   2.3667
  2.4105   2.4495   2.5311   2.5514   2.6305   2.6463   2.6470   2.6796
  2.7175   2.7968   2.8327   2.8410   2.9528   2.9704   3.0915   3.2344
  3.4107   4.1509   4.2509   4.2917   4.3194   4.3612   4.3996   4.4801
  4.5208   4.7810
 --------------------------------------------------------------
 
          Ground-State Mulliken Net Atomic Charges

     Atom                 Charge (a.u.)
  ----------------------------------------
      1 C                    -0.012201
      2 C                    -0.492716
      3 C                    -0.135472
      4 C                    -1.105205
      5 C                     1.483767
      6 C                    -0.737387
      7 N                    -0.406002
      8 C                    -0.009842
      9 C                    -0.217484
     10 H                     0.424828
     11 H                     0.207324
     12 H                     0.208685
     13 H                     0.195954
     14 H                     0.196817
     15 H                     0.195559
     16 H                     0.203376
  ----------------------------------------
  Sum of atomic charges =     0.000000

 -----------------------------------------------------------------
                    Cartesian Multipole Moments
 -----------------------------------------------------------------
    Charge (ESU x 10^10)
                -0.0000
    Dipole Moment (Debye)
         X      -1.6251      Y       1.7320      Z       0.0003
       Tot       2.3750
    Quadrupole Moments (Debye-Ang)
        XX     -44.6583     XY      -3.7667     YY     -43.7694
        XZ      -0.0013     YZ       0.0013     ZZ     -58.7082
    Octopole Moments (Debye-Ang^2)
       XXX     -15.4527    XXY       9.3981    XYY      -8.4056
       YYY      11.3171    XXZ       0.0002    XYZ      -0.0025
       YYZ      -0.0007    XZZ      -2.2351    YZZ       2.2822
       ZZZ      -0.0055
    Hexadecapole Moments (Debye-Ang^3)
      XXXX    -807.1146   XXXY     -23.3763   XXYY    -194.0837
      XYYY     -18.9678   YYYY    -367.8980   XXXZ      -0.0038
      XXYZ       0.0031   XYYZ      -0.0005   YYYZ       0.0005
      XXZZ    -188.9662   XYZZ      -3.3225   YYZZ     -93.9664
      XZZZ       0.0077   YZZZ      -0.0067   ZZZZ     -71.5955
 -----------------------------------------------------------------
 Calculating analytic gradient of the CIS energy
 CIS relaxed dipole moment
            1
    1   2.5314506
    2  -2.6333113
    3  -0.0003284
	Magnitude:	 3.653 au	 9.284 Debye
 CIS 3 State Energy is -363.5094807828
 Gradient of the state energy (including CIS Excitation Energy)
            1           2           3           4           5           6
    1   0.0065562   0.0039300   0.0076066  -0.0062799   0.0020923  -0.0097716
    2  -0.0049649   0.0146174   0.0053913   0.0077729  -0.0092491  -0.0059003
    3  -0.0000052   0.0000025  -0.0000018   0.0000060   0.0000047   0.0000134
            7           8           9          10          11          12
    1   0.0150377  -0.0134637  -0.0168970   0.0084572   0.0003988   0.0021723
    2   0.0356656   0.0067286  -0.0319654  -0.0176269   0.0008219  -0.0021169
    3  -0.0000237  -0.0000186   0.0000260   0.0000035  -0.0000007  -0.0000019
           13          14          15          16
    1  -0.0002070   0.0008547  -0.0001076  -0.0003791
    2  -0.0000681   0.0007095   0.0000354   0.0001491
    3   0.0000003  -0.0000009  -0.0000019  -0.0000017
 Gradient time:  CPU 22.06 s  wall 5.54 s
 Geometry Optimization Parameters
   NAtoms,    NIC,     NZ,  NCons,   NDum,   NFix, NCnnct, MaxDiis
       16     116       0       0       0       0       0       0

 Cartesian Hessian Update
 Hessian updated using BFGS update


** GEOMETRY OPTIMIZATION IN DELOCALIZED INTERNAL COORDINATES **
   Searching for a Minimum

   Optimization Cycle:   5

                       Coordinates (Angstroms)
     ATOM                X               Y               Z
      1  C         2.1723390592   -0.6974165202   -0.0000170909
      2  C         2.1413809940    0.7137117740   -0.0000059169
      3  C         0.9183244804    1.4256792737    0.0000565072
      4  C        -0.2496496063    0.6758203329    0.0001016427
      5  C        -0.2464268497   -0.7636725113    0.0000163656
      6  C         0.9825884330   -1.4501578294    0.0000082566
      7  N        -1.5751166574    1.0705076219    0.0000604258
      8  C        -1.6027660964   -1.1740410429   -0.0000625621
      9  C        -2.3871217965   -0.0061558843    0.0001301985
     10  H        -1.9153502557    2.0498655187    0.0002684037
     11  H        -1.9862007969   -2.1867897742   -0.0001551655
     12  H        -3.4644261019    0.1212668267    0.0001842713
     13  H         3.0741759324    1.2688761132   -0.0000419501
     14  H         0.8981311914    2.5105149259    0.0000650530
     15  H         3.1295627871   -1.2098494222   -0.0000542823
     16  H         1.0136502344   -2.5356069098   -0.0000281755
   Point Group: c1    Number of degrees of freedom:    42


   Energy is   -363.509480783

 Hessian updated using BFGS update

 42 Hessian modes will be used to form the next step
  Hessian Eigenvalues:
     0.018593    0.019738    0.020011    0.020794    0.021683    0.022200
     0.022636    0.023004    0.023236    0.023608    0.023851    0.023984
     0.024127    0.158784    0.159778    0.159986    0.160000    0.160000
     0.160026    0.162209    0.219931    0.221721    0.226449    0.240462
     0.247215    0.332754    0.357159    0.357439    0.357868    0.359721
     0.363989    0.365512    0.374286    0.377929    0.426687    0.443856
     0.459293    0.464506    0.473540    0.475797    0.495794    6.662695

 Minimum search - taking simple RFO step
 Searching for Lamda that Minimizes Along All modes
 Value Taken    Lamda =  -0.00035513
 Step Taken.  Stepsize is  0.010090

                             Maximum     Tolerance    Cnvgd?
         Gradient           0.022817      0.000300      NO
         Displacement       0.005715      0.001200      NO
         Energy change     -0.000616      0.000001      NO


 New Cartesian Coordinates Obtained by Inverse Iteration

 Displacement from previous Coordinates is:  0.014761
 ----------------------------------------------------------------
             Standard Nuclear Orientation (Angstroms)
    I     Atom           X                Y                Z
 ----------------------------------------------------------------
    1      C       2.1739960594    -0.6985219863    -0.0000555419
    2      C       2.1415554939     0.7127586966    -0.0000203500
    3      C       0.9173451466     1.4251003537     0.0000983478
    4      C      -0.2504735706     0.6757402138     0.0001487043
    5      C      -0.2458643743    -0.7642581879     0.0000206847
    6      C       0.9843484012    -1.4511877877    -0.0000793545
    7      N      -1.5770076308     1.0705767134     0.0001242482
    8      C      -1.6015723112    -1.1737566949     0.0000938874
    9      C      -2.3873719289    -0.0039550876     0.0000063381
[...]
    1  -0.0076194  -0.0046271  -0.0086640   0.0079551  -0.0012498   0.0103983
    2   0.0061978  -0.0169243  -0.0065361  -0.0093757   0.0116905   0.0071401
    3  -0.0015863   0.0021328  -0.0010070  -0.0041399   0.0021359   0.0020586
            7           8           9          10          11          12
    1  -0.0167095   0.0137811   0.0190984  -0.0090821  -0.0002970  -0.0022095
    2  -0.0388752  -0.0076383   0.0345206   0.0189837  -0.0006928   0.0022944
    3   0.0002269  -0.0008762   0.0001920   0.0017042  -0.0001406  -0.0002423
           13          14          15          16
    1  -0.0000407  -0.0009636  -0.0001276   0.0003574
    2   0.0000222  -0.0009305   0.0000731   0.0000505
    3   0.0002299   0.0000442  -0.0005896  -0.0001424
 Gradient time:  CPU 23.22 s  wall 5.84 s
 Geometry Optimization Parameters
   NAtoms,    NIC,     NZ,  NCons,   NDum,   NFix, NCnnct, MaxDiis
       16     116       0       0       0       0       0       0

 Cartesian Hessian Update
 Hessian updated using BFGS update


** GEOMETRY OPTIMIZATION IN DELOCALIZED INTERNAL COORDINATES **
   Searching for a Minimum

   Optimization Cycle:  49

                       Coordinates (Angstroms)
     ATOM                X               Y               Z
      1  C         2.1737395566   -0.6984855130   -0.0015810177
      2  C         2.1409059689    0.7122777457    0.0049984329
      3  C         0.9169587832    1.4244461920   -0.0040838665
      4  C        -0.2503351222    0.6756486224   -0.0097856221
      5  C        -0.2457017672   -0.7643090937   -0.0011825834
      6  C         0.9847432043   -1.4506815328    0.0037390115
      7  N        -1.5770649258    1.0704741732   -0.0024696126
      8  C        -1.6008356027   -1.1738858933   -0.0013895712
      9  C        -2.3867943406   -0.0033649536   -0.0003176883
     10  H        -1.9195376664    2.0516325837    0.0098975519
     11  H        -1.9863187442   -2.1863236447    0.0002052286
     12  H        -3.4647127286    0.1240449548    0.0009686100
     13  H         3.0736225461    1.2682597016    0.0090696770
     14  H         0.8968328669    2.5093912051   -0.0049113984
     15  H         3.1316863581   -1.2101498234   -0.0079038222
     16  H         1.0159065650   -2.5364222311    0.0052726518
   Point Group: c1    Number of degrees of freedom:    42


   Energy is   -363.509245189

 Hessian updated using BFGS update

 42 Hessian modes will be used to form the next step
  Hessian Eigenvalues:
     0.018279    0.020039    0.020496    0.021624    0.022165    0.023017
     0.023143    0.023372    0.023948    0.024082    0.025731    0.030076
     0.041289    0.158875    0.159883    0.159978    0.160095    0.160237
     0.160424    0.162281    0.221394    0.222507    0.236418    0.243156
     0.249270    0.331331    0.357164    0.357411    0.357871    0.359785
     0.364163    0.366602    0.374598    0.384323    0.426605    0.445396
     0.459879    0.468986    0.483290    0.487049    0.524536    9.663507

 Minimum search - taking simple RFO step
 Searching for Lamda that Minimizes Along All modes
 Value Taken    Lamda =  -0.00497043
 Calculated Step too Large.  Step scaled by  0.798124
 Step Taken.  Stepsize is  0.300000

                             Maximum     Tolerance    Cnvgd?
         Gradient           0.024541      0.000300      NO
         Displacement       0.191079      0.001200      NO
         Energy change     -0.002497      0.000001      NO


 New Cartesian Coordinates Obtained by Inverse Iteration

 Displacement from previous Coordinates is:  0.244924
 ----------------------------------------------------------------
             Standard Nuclear Orientation (Angstroms)
    I     Atom           X                Y                Z
 ----------------------------------------------------------------
    1      C       2.1721416750    -0.6964440419     0.0060806676
    2      C       2.1458822126     0.7220357917    -0.0126485180
    3      C       0.9233459203     1.4338858992     0.0294582537
    4      C      -0.2505866973     0.6792697087     0.0408539293
    5      C      -0.2516327151    -0.7681173236    -0.0000310192
    6      C       0.9784761738    -1.4541524515    -0.0232223253
    7      N      -1.5712338910     1.0731247107     0.0013725865
    8      C      -1.6106392530    -1.1739739574     0.0156176586
    9      C      -2.3939555117    -0.0134759511     0.0052238577
   10      H      -1.9016149207     2.0420488654    -0.0593552668
   11      H      -1.9935488956    -2.1870344640     0.0177994595
   12      H      -3.4699800888     0.1120362262    -0.0047872145
   13      H       3.0809387523     1.2734342855    -0.0305401748
   14      H       0.9037126412     2.5193386988     0.0273705176
   15      H       3.1291768348    -1.2097634766     0.0211528344
   16      H       1.0126127144    -2.5396600274    -0.0338192651
 ----------------------------------------------------------------
 Molecular Point Group                 C1    NOp =  1
 Largest Abelian Subgroup              C1    NOp =  1
 Nuclear Repulsion Energy =         398.17776274 hartrees
 There are       31 alpha and       31 beta electrons
 Applying Cartesian multipole field
    Component          Value
    ---------          -----
     (2,0,0)        1.00000E-11
     (0,2,0)        2.00000E-11
     (0,0,2)       -3.00000E-11
 Nucleus-field energy     =     0.0000000119 hartrees
 Requested basis set is 6-31+G(d)
 There are 59 shells and 185 basis functions
 A cutoff of  1.0D-12 yielded   1657 shell pairs
 There are     17105 function pairs
 Smallest overlap matrix eigenvalue = 1.43E-06
 Guess MOs from SCF MO coefficient file

 -----------------------------------------------------------------------
  General SCF calculation program by
  Eric Jon Sundstrom, Paul Horn, Yuezhi Mao, Dmitri Zuev, Alec White,
  David Stuck, Shaama M.S., Shane Yost, Joonho Lee, David Small,
  Daniel Levine, Susi Lehtola, Hugh Burton, Evgeny Epifanovsky,
  Bang C. Huynh
 -----------------------------------------------------------------------
 Exchange:     0.2000 Hartree-Fock + 0.0800 Slater + 0.7200 B88
 Correlation:  0.1900 PW92 + 0.8100 PW91
 Using SG-1 standard quadrature grid
 using 4 threads for integral computing
 -------------------------------------------------------
 OpenMP Integral computing Module                
 Release: version 1.0, May 2013, Q-Chem Inc. Pittsburgh 
 -------------------------------------------------------
 A restricted SCF calculation will be
 performed using DIIS
 SCF converges when DIIS error is below 1.0e-08
 ---------------------------------------
  Cycle       Energy         DIIS error
 ---------------------------------------
    1    -363.6818779487      1.19e-03  
    2    -363.6891869299      1.22e-04  
    3    -363.6891352845      1.78e-04  
    4    -363.6892655207      4.03e-05  
    5    -363.6892715992      1.61e-05  
    6    -363.6892727100      3.95e-06  
    7    -363.6892727719      1.80e-06  
    8    -363.6892727873      2.93e-07  
    9    -363.6892727877      1.17e-07  
   10    -363.6892727877      5.30e-08  
   11    -363.6892727877      1.51e-08  
   12    -363.6892727877      3.12e-09  Convergence criterion met
 ---------------------------------------
 SCF time:   CPU 36.71s  wall 9.00s 
 SCF   energy in the final basis set =     -363.6892727877
 Total energy in the final basis set =     -363.6892727877
 
 Direct TDDFT/TDA calculation will be performed
 Exchange:     0.2000 Hartree-Fock + 0.0800 Slater + 0.7200 B88
 Correlation:  0.1900 PW92 + 0.8100 PW91
 Using SG-1 standard quadrature grid
 Singlet excitation energies requested
 CIS energy converged when residual is below 10e- 6
 ---------------------------------------------------
 Iter    Rts Conv    Rts Left    Ttl Dev     Max Dev
 ---------------------------------------------------
   1         0           3      0.003890    0.001888
   2         0           3      0.001670    0.000763
   3         0           3      0.000740    0.000290
   4         0           3      0.000232    0.000088
   5         0           3      0.000068    0.000027
   6         0           3      0.000018    0.000007
   7         0           3      0.000005    0.000002
   8         3           0      0.000001    0.000000    Roots Converged
 ---------------------------------------------------
 
 ---------------------------------------------------
         TDDFT/TDA Excitation Energies              
 ---------------------------------------------------

 Excited state   1: excitation energy (eV) =    4.7541
 Total energy for state  1:                  -363.51456175 au
    Multiplicity: Singlet
    Trans. Mom.: -0.7527 X   0.6383 Y   0.0062 Z
    Strength   :     0.1134624885
    D(   30) --> V(    3) amplitude =  0.2474
    D(   31) --> V(    1) amplitude =  0.9014

 Excited state   2: excitation energy (eV) =    4.8228
 Total energy for state  2:                  -363.51203813 au
    Multiplicity: Singlet
    Trans. Mom.: -0.1555 X  -0.2646 Y  -0.0292 Z
    Strength   :     0.0112310314
    D(   30) --> V(    1) amplitude =  0.7509
    D(   31) --> V(    2) amplitude = -0.2572
    D(   31) --> V(    3) amplitude = -0.5743

 Excited state   3: excitation energy (eV) =    4.9934
 Total energy for state  3:                  -363.50576848 au
    Multiplicity: Singlet
    Trans. Mom.: -0.1332 X  -0.0180 Y   0.1301 Z
    Strength   :     0.0042798998
    D(   31) --> V(    2) amplitude =  0.9516
    D(   31) --> V(    3) amplitude = -0.2548
 
 ---------------------------------------------------
 Calculating Relaxed Density
 ---------------------------------------------------
 Iter    Rts Conv    Rts Left    Ttl Dev     Max Dev
 ---------------------------------------------------
   1         0           3      0.001561    0.000805
   2         0           3      0.000570    0.000276
   3         0           3      0.000148    0.000068
   4         0           3      0.000043    0.000021
   5         1           2      0.000007    0.000004
   6         1           2      0.000002    0.000001
   7         3           0      0.000000    0.000000    Roots Converged
 ---------------------------------------------------
  SETman timing summary (seconds)
  CPU time               123.97s
  System time              0.00s
  Wall time               31.17s
 
 --------------------------------------------------------------
 
                    Orbital Energies (a.u.)
 --------------------------------------------------------------
 
 Alpha MOs
 -- Occupied --
-14.3836 -10.2161 -10.2142 -10.1849 -10.1801 -10.1797 -10.1792 -10.1757
-10.1699  -0.9938  -0.8404  -0.7872  -0.7408  -0.7189  -0.6314  -0.6016
 -0.5854  -0.5436  -0.4909  -0.4739  -0.4413  -0.4351  -0.4278  -0.4103
 -0.3973  -0.3589  -0.3404  -0.3364  -0.2842  -0.2289  -0.2070
 -- Virtual --
 -0.0235   0.0050   0.0139   0.0259   0.0320   0.0461   0.0464   0.0477
  0.0688   0.0704   0.0745   0.0758   0.0949   0.0979   0.1157   0.1165
  0.1203   0.1347   0.1434   0.1457   0.1599   0.1673   0.1716   0.1725
  0.1773   0.1846   0.1920   0.1942   0.2014   0.2048   0.2058   0.2073
  0.2240   0.2295   0.2371   0.2422   0.2441   0.2497   0.2597   0.2654
  0.2757   0.2776   0.2820   0.2980   0.2999   0.3074   0.3216   0.3338
  0.3498   0.3627   0.3746   0.3939   0.4243   0.4471   0.5114   0.5658
  0.6042   0.6740   0.6816   0.7033   0.7160   0.7245   0.7309   0.7369
  0.7400   0.7564   0.7585   0.7791   0.7931   0.7942   0.8156   0.8538
  0.8898   0.8985   0.9101   0.9393   0.9452   0.9547   0.9614   0.9876
  0.9964   1.0298   1.0491   1.0510   1.0922   1.1100   1.1109   1.1654
  1.1769   1.2008   1.2181   1.2233   1.2493   1.3081   1.3198   1.3375
  1.3613   1.4000   1.4128   1.4361   1.4566   1.4650   1.4919   1.4952
  1.5478   1.5807   1.6430   1.7745   1.8222   1.8806   1.8887   1.9045
  1.9206   1.9803   1.9866   2.0058   2.0442   2.0612   2.1254   2.1433
  2.1508   2.1739   2.2361   2.2370   2.2536   2.2719   2.3045   2.3616
  2.4091   2.4454   2.5270   2.5462   2.6242   2.6371   2.6442   2.6755
  2.7120   2.7919   2.8258   2.8344   2.9530   2.9593   3.0895   3.2277
  3.3944   4.1420   4.2458   4.2907   4.3185   4.3585   4.3990   4.4768
  4.5186   4.7741
 --------------------------------------------------------------
 
          Ground-State Mulliken Net Atomic Charges

     Atom                 Charge (a.u.)
  ----------------------------------------
      1 C                    -0.016882
      2 C                    -0.478804
      3 C                    -0.154257
      4 C                    -1.055410
      5 C                     1.429544
      6 C                    -0.748338
      7 N                    -0.413278
      8 C                     0.019383
      9 C                    -0.216991
     10 H                     0.424846
     11 H                     0.207840
     12 H                     0.209695
     13 H                     0.196689
     14 H                     0.197117
     15 H                     0.195268
     16 H                     0.203580
  ----------------------------------------
  Sum of atomic charges =     0.000000

 -----------------------------------------------------------------
                    Cartesian Multipole Moments
 -----------------------------------------------------------------
    Charge (ESU x 10^10)
                -0.0000
    Dipole Moment (Debye)
         X      -1.6176      Y       1.6723      Z      -0.1040
       Tot       2.3290
    Quadrupole Moments (Debye-Ang)
        XX     -44.6576     XY      -3.5445     YY     -43.7738
        XZ       0.2036     YZ      -0.2545     ZZ     -58.7585
    Octopole Moments (Debye-Ang^2)
       XXX     -15.3569    XXY       9.0500    XYY      -8.1807
       YYY      10.9303    XXZ      -0.8074    XYZ       0.3642
       YYZ      -0.8881    XZZ      -2.2906    YZZ       2.2065
       ZZZ      -1.0150
    Hexadecapole Moments (Debye-Ang^3)
      XXXX    -808.5781   XXXY     -22.9251   XXYY    -195.1409
      XYYY     -19.4259   YYYY    -369.8729   XXXZ       2.0361
      XXYZ      -2.1685   XYYZ       1.1294   YYYZ      -1.9611
      XXZZ    -189.5637   XYZZ      -3.6864   YYZZ     -94.3515
      XZZZ       1.1240   YZZZ      -1.3607   ZZZZ     -71.8822
 -----------------------------------------------------------------
 Calculating analytic gradient of the CIS energy
 CIS relaxed dipole moment
            1
    1   2.4442709
    2  -2.5226765
    3  -0.0559310
	Magnitude:	 3.513 au	 8.929 Debye
 CIS 3 State Energy is -363.5057684778
 Gradient of the state energy (including CIS Excitation Energy)
            1           2           3           4           5           6
    1   0.0083030   0.0049249   0.0112568  -0.0106779   0.0002969  -0.0115802
    2  -0.0076992   0.0205353   0.0081012   0.0107530  -0.0139469  -0.0087141
    3   0.0049193  -0.0063338   0.0025151   0.0125632  -0.0071972  -0.0060387
            7           8           9          10          11          12
    1   0.0202526  -0.0157496  -0.0209144   0.0100495   0.0004043   0.0025190
    2   0.0443074   0.0088762  -0.0401211  -0.0212742   0.0008221  -0.0026064
    3  -0.0036110   0.0031025  -0.0004594  -0.0020804   0.0002567   0.0006774
           13          14          15          16
    1  -0.0000051   0.0012201   0.0001129  -0.0004127
    2   0.0000307   0.0010728  -0.0000718  -0.0000649
    3  -0.0003758  -0.0001532   0.0015423   0.0006730
 Gradient time:  CPU 23.17 s  wall 5.83 s
 Geometry Optimization Parameters
   NAtoms,    NIC,     NZ,  NCons,   NDum,   NFix, NCnnct, MaxDiis
       16     116       0       0       0       0       0       0

 Cartesian Hessian Update
 Hessian updated using BFGS update


** GEOMETRY OPTIMIZATION IN DELOCALIZED INTERNAL COORDINATES **
   Searching for a Minimum

   Optimization Cycle:  50

                       Coordinates (Angstroms)
     ATOM                X               Y               Z
      1  C         2.1721416750   -0.6964440419    0.0060806676
      2  C         2.1458822126    0.7220357917   -0.0126485180
      3  C         0.9233459203    1.4338858992    0.0294582537
      4  C        -0.2505866973    0.6792697087    0.0408539293
      5  C        -0.2516327151   -0.7681173236   -0.0000310192
      6  C         0.9784761738   -1.4541524515   -0.0232223253
      7  N        -1.5712338910    1.0731247107    0.0013725865
      8  C        -1.6106392530   -1.1739739574    0.0156176586
      9  C        -2.3939555117   -0.0134759511    0.0052238577
     10  H        -1.9016149207    2.0420488654   -0.0593552668
     11  H        -1.9935488956   -2.1870344640    0.0177994595
     12  H        -3.4699800888    0.1120362262   -0.0047872145
     13  H         3.0809387523    1.2734342855   -0.0305401748
     14  H         0.9037126412    2.5193386988    0.0273705176
     15  H         3.1291768348   -1.2097634766    0.0211528344
     16  H         1.0126127144   -2.5396600274   -0.0338192651
   Point Group: c1    Number of degrees of freedom:    42


   Energy is   -363.505768478

 Hessian updated using BFGS update

 42 Hessian modes will be used to form the next step
  Hessian Eigenvalues:
     0.019308    0.020132    0.021198    0.021679    0.022841    0.023142
     0.023177    0.023876    0.024014    0.024163    0.027333    0.030841
     0.110410    0.158922    0.159892    0.159980    0.160101    0.160422
     0.160517    0.162350    0.221395    0.222509    0.236705    0.243305
     0.249328    0.331777    0.357165    0.357414    0.357871    0.359829
     0.364191    0.366684    0.374664    0.384342    0.426605    0.445431
     0.460021    0.469000    0.483610    0.487457    0.525951   10.259275

 Minimum search - taking simple RFO step
 Searching for Lamda that Minimizes Along All modes
 Value Taken    Lamda =  -0.00351999
 Step Taken.  Stepsize is  0.173228

                             Maximum     Tolerance    Cnvgd?
         Gradient           0.028764      0.000300      NO
         Displacement       0.107239      0.001200      NO
         Energy change      0.003477      0.000001      NO


 New Cartesian Coordinates Obtained by Inverse Iteration

 Displacement from previous Coordinates is:  0.142181
 ----------------------------------------------------------------
             Standard Nuclear Orientation (Angstroms)
    I     Atom           X                Y                Z
 ----------------------------------------------------------------
    1      C       2.1737541985    -0.6976677779     0.0029434534
    2      C       2.1435007154     0.7160830340    -0.0027834397
    3      C       0.9195733152     1.4280278164     0.0098428085
    4      C      -0.2503679292     0.6772026215     0.0122964985
    5      C      -0.2479129362    -0.7656719551     0.0008386332
    6      C       0.9823862305    -1.4518379739    -0.0058315333
    7      N      -1.5750515031     1.0715660259     0.0019348876
    8      C      -1.6051514358    -1.1736428982     0.0040705066
    9      C      -2.3906046812    -0.0075469146     0.0021217073
   10      H      -1.9124764440     2.0478510716    -0.0189142966
   11      H      -1.9894380457    -2.1864149799     0.0046520132
   12      H      -3.4677420675     0.1188898527    -0.0017284400
   13      H       3.0772561944     1.2701409620    -0.0107032324
   14      H       0.8993657008     2.5131859903     0.0077158344
   15      H       3.1313390866    -1.2101151485     0.0053004138
   16      H       1.0146645526    -2.5374972335    -0.0112298333
 ----------------------------------------------------------------
 Molecular Point Group                 C1    NOp =  1
 Largest Abelian Subgroup              C1    NOp =  1
 Nuclear Repulsion Energy =         398.61616936 hartrees
 There are       31 alpha and       31 beta electrons


 *******************************************
 **  MAXIMUM OPTIMIZATION CYCLES REACHED  **
 *******************************************

 Q-Chem fatal error occurred in module 0, line  455:

 Maximum optimization cycles reached

