
Running Job 1 of 1 QfuncsPBE-VII-3rd.in
qchem QfuncsPBE-VII-3rd.in_13711.0 /scratch/scaparas/job_3624014/qchem13711/ 0
/cm/shared/apps/spack/cpu/opt/spack/linux-centos8-zen2/gcc-10.2.0/qchem-5.3-5qddma6gy34jvefiv7mbcb7qm253n45r/exe/qcprog.exe_s QfuncsPBE-VII-3rd.in_13711.0 /scratch/scaparas/job_3624014/qchem13711/
                  Welcome to Q-Chem
     A Quantum Leap Into The Future Of Chemistry


 Q-Chem 5.3, Q-Chem, Inc., Pleasanton, CA (2020)

 License issued to: University of California, San Diego (site)

 Yihan Shao,  Zhengting Gan,  E. Epifanovsky,  A. T. B. Gilbert,  M. Wormit,  
 J. Kussmann,  A. W. Lange,  A. Behn,  Jia Deng,  Xintian Feng,  D. Ghosh,  
 M. Goldey,  P. R. Horn,  L. D. Jacobson,  I. Kaliman,  T. Kus,  A. Landau,  
 Jie Liu,  E. I. Proynov,  R. M. Richard,  R. P. Steele,  E. J. Sundstrom,  
 H. L. Woodcock III,  P. M. Zimmerman,  D. Zuev,  B. Alam,  B. Albrecht,  
 A. Aldossary,  E. Alguire,  S. A. Baeppler,  D. Barton,  Z. Benda,  
 Y. A. Bernard,  E. J. Berquist,  K. B. Bravaya,  H. Burton,  K. Carter-Fenk,  
 D. Casanova,  Chun-Min Chang,  Yunqing Chen,  A. Chien,  K. D. Closser,  
 M. P. Coons,  S. Coriani,  S. Dasgupta,  A. L. Dempwolff,  M. Diedenhofen,  
 Hainam Do,  R. G. Edgar,  Po-Tung Fang,  S. Faraji,  S. Fatehi,  
 Qingguo Feng,  J. Fosso-Tande,  J. Gayvert,  Qinghui Ge,  A. Ghysels,  
 G. Gidofalvi,  J. Gomes,  J. Gonthier,  S. Gulania,  A. Gunina,  D. Hait,  
 M. W. D. Hanson-Heine,  S. Hammes-Schiffer,  P. H. P. Harbach,  
 A. W. Hauser,  M. F. Herbst,  J. E. Herr,  E. G. Hohenstein,  Z. C. Holden,  
 S. Houck,  Kerwin Hui,  B. C. Huynh,  M. Ivanov,  T.-C. Jagau,  Hyunjun Ji,  
 B. Kaduk,  K. Khistyaev,  Jaehoon Kim,  P. Klunzinger,  K. Koh,  
 D. Kosenkov,  L. Koulias,  T. Kowalczyk,  C. M. Krauter,  A. Kunitsa,  
 Ka Un Lao,  A. Laurent,  K. V. Lawler,  Joonho Lee,  D. Lefrancois,  
 S. Lehtola,  D. S. Levine,  Yi-Pei Li,  You-Sheng Lin,  Fenglai Liu,  
 Kuan-Yu Liu,  E. Livshits,  M. Loipersberger,  A. Luenser,  P. Manohar,  
 E. Mansoor,  S. F. Manzer,  Shan-Ping Mao,  Yuezhi Mao,  N. Mardirossian,  
 A. V. Marenich,  T. Markovich,  L. A. Martinez-Martinez,  S. A. Maurer,  
 N. J. Mayhall,  S. C. McKenzie,  J.-M. Mewes,  P. Morgante,  A. F. Morrison,  
 J. W. Mullinax,  K. Nanda,  T. S. Nguyen-Beck,  R. Olivares-Amaya,  
 K. J. Oosterbaan,  J. A. Parkhill,  S. K. Paul,  F. Pavosevic,  Zheng Pei,  
 T. M. Perrine,  F. Plasser,  P. Pokhilko,  S. Prager,  A. Prociuk,  
 E. Ramos,  B. Rana,  D. R. Rehn,  F. Rob,  E. Rossomme,  M. Scheurer,  
 M. Schneider,  N. Sergueev,  S. M. Sharada,  S. Sharma,  W. Skomorowski,  
 D. W. Small,  T. Stauch,  C. J. Stein,  T. Stein,  Yu-Chuan Su,  
 S. P. Veccham,  Zhen Tao,  A. J. W. Thom,  A. Tkatchenko,  T. Tsuchimochi,  
 N. M. Tubman,  L. Vogt,  M. L. Vidal,  O. Vydrov,  M. A. Watson,  J. Wenzel,  
 M. de Wergifosse,  T. A. Wesolowski,  A. White,  J. Witte,  A. Yamada,  
 Jun Yang,  K. Yao,  S. Yeganeh,  S. R. Yost,  Zhi-Qiang You,  A. Zech,  
 Igor Ying Zhang,  Xing Zhang,  Yan Zhao,  Ying Zhu,  B. R. Brooks,  
 G. K. L. Chan,  C. J. Cramer,  M. S. Gordon,  W. J. Hehre,  A. Klamt,  
 M. W. Schmidt,  C. D. Sherrill,  D. G. Truhlar,  A. Aspuru-Guzik,  R. Baer,  
 A. T. Bell,  N. A. Besley,  Jeng-Da Chai,  A. E. DePrince, III,  
 R. A. DiStasio Jr.,  A. Dreuw,  B. D. Dunietz,  T. R. Furlani,  
 Chao-Ping Hsu,  Yousung Jung,  Jing Kong,  D. S. Lambrecht,  WanZhen Liang,  
 C. Ochsenfeld,  V. A. Rassolov,  L. V. Slipchenko,  J. E. Subotnik,  
 T. Van Voorhis,  J. M. Herbert,  A. I. Krylov,  P. M. W. Gill,  M. Head-Gordon

 Contributors to earlier versions of Q-Chem not listed above: 
 R. D. Adamson,  B. Austin,  J. Baker,  G. J. O. Beran,  K. Brandhorst,  
 S. T. Brown,  E. F. C. Byrd,  A. K. Chakraborty,  C.-L. Cheng,  
 Siu Hung Chien,  D. M. Chipman,  D. L. Crittenden,  H. Dachsel,  
 R. J. Doerksen,  A. D. Dutoi,  L. Fusti-Molnar,  W. A. Goddard III,  
 A. Golubeva-Zadorozhnaya,  S. R. Gwaltney,  G. Hawkins,  A. Heyden,  
 S. Hirata,  G. Kedziora,  F. J. Keil,  C. Kelley,  Jihan Kim,  R. A. King,  
 R. Z. Khaliullin,  P. P. Korambath,  W. Kurlancheek,  A. M. Lee,  M. S. Lee,  
 S. V. Levchenko,  Ching Yeh Lin,  D. Liotard,  R. C. Lochan,  I. Lotan,  
 P. E. Maslen,  N. Nair,  D. P. O'Neill,  D. Neuhauser,  E. Neuscamman,  
 C. M. Oana,  R. Olson,  B. Peters,  R. Peverati,  P. A. Pieniazek,  
 Y. M. Rhee,  J. Ritchie,  M. A. Rohrdanz,  E. Rosta,  N. J. Russ,  
 H. F. Schaefer III,  N. E. Schultz,  N. Shenvi,  A. C. Simmonett,  A. Sodt,  
 D. Stuck,  K. S. Thanthiriwatte,  V. Vanovschi,  Tao Wang,  A. Warshel,  
 C. F. Williams,  Q. Wu,  X. Xu,  W. Zhang

 Please cite Q-Chem as follows:
 Y. Shao et al., Mol. Phys. 113, 184-215 (2015)
 DOI: 10.1080/00268976.2014.952696

 Q-Chem 5.3.1 for Intel X86 EM64T Linux

 Parts of Q-Chem use Armadillo 9.800.1 (Horizon Scraper).
 http://arma.sourceforge.net/

 Q-Chem begins on Fri Jun 25 07:28:38 2021  

Host: 
0

     Scratch files written to /scratch/scaparas/job_3624014/qchem13711//
 Aug2920 |scratch|qcdevops|jenkins|workspace|build_RNUM    
Processing $rem in /cm/shared/apps/spack/cpu/opt/spack/linux-centos8-zen2/gcc-10.2.0/qchem-5.3-5qddma6gy34jvefiv7mbcb7qm253n45r/config/preferences:
Processing $rem in /home/scaparas/.qchemrc:

Checking the input file for inconsistencies... 	...done.

--------------------------------------------------------------
User input:
--------------------------------------------------------------
$molecule
0 1
C   -2.1510630    0.6892080    0.0000880
C   -2.1279270   -0.7158180    0.0000750
C   -0.9322970   -1.4131000   -0.0000110
C    0.2469110   -0.6702010   -0.0000420
C    0.2481930    0.7482990    0.0000000
C   -0.9794740    1.4235260    0.0000320
N    1.5617740   -1.0775920   -0.0002850
C    1.6201330    1.1629000   -0.0001570
C    2.3820130    0.0308060    0.0002480
H    1.8763150   -2.0300110    0.0004380
H    1.9921730    2.1730100   -0.0003480
H    3.4525490   -0.0824250    0.0004080
H   -3.0615940   -1.2620200    0.0000880
H   -0.9172520   -2.4953420   -0.0000730
H   -3.1042030    1.2007850    0.0000900
H   -1.0093480    2.5054210   -0.0000150
$end

$rem
BASIS  =  6-31+G*
GUI  =  2
JOB_TYPE  =  Optimization
METHOD  = PBE
SCF_CONVERGENCE  =  8
THRESH = 12
CIS_N_ROOTS  = 3
CIS_SINGLETS = true
CIS_TRIPLETS = false
CIS_STATE_DERIV = 3
MEM_STATIC = 500
MEM_TOTAL = 3000
$end
--------------------------------------------------------------
 ----------------------------------------------------------------
             Standard Nuclear Orientation (Angstroms)
    I     Atom           X                Y                Z
 ----------------------------------------------------------------
    1      C       2.1510629040    -0.6892079969     0.0000583065
    2      C       2.1279268385     0.7158180020     0.0000481775
    3      C       0.9322968051     1.4130999466    -0.0000206639
    4      C      -0.2469111607     0.6702008918    -0.0000373513
    5      C      -0.2481930942    -0.7482991083     0.0000020775
    6      C       0.9794739374    -1.4235260513     0.0000165335
    7      N      -1.5617741827     1.0775918311    -0.0002621374
    8      C      -1.6201330769    -1.1629001718    -0.0001374500
    9      C      -2.3820131241    -0.0308062080     0.0002797387
   10      H      -1.8763152174     2.0300108152     0.0004667797
   11      H      -1.9921730325    -2.1730101887    -0.0003253498
   12      H      -3.4525491271     0.0824247420     0.0004541695
   13      H       3.0615938132     1.2620200454     0.0000497686
   14      H       0.9172517540     2.4953419460    -0.0000804893
   15      H       3.1042029277    -1.2007849526     0.0000467087
   16      H       1.0093479871    -2.5054210498    -0.0000328375
 ----------------------------------------------------------------
 Molecular Point Group                 C1    NOp =  1
 Largest Abelian Subgroup              C1    NOp =  1
 Nuclear Repulsion Energy =         401.33686680 hartrees
 There are       31 alpha and       31 beta electrons
 Requested basis set is 6-31+G(d)
 There are 59 shells and 185 basis functions

 Total QAlloc Memory Limit   3000 MB
 Mega-Array Size       489 MB
 MEM_STATIC part       500 MB
 A cutoff of  1.0D-12 yielded   1657 shell pairs
 There are     17105 function pairs
 Smallest overlap matrix eigenvalue = 1.26E-06

 Scale SEOQF with 1.000000e-01/1.000000e-01/1.000000e-01

 Standard Electronic Orientation quadrupole field applied
 Nucleus-field energy     =     0.0000000117 hartrees
 Guess from superposition of atomic densities
 Warning:  Energy on first SCF cycle will be non-variational
 SAD guess density has 62.000000 electrons

 -----------------------------------------------------------------------
  General SCF calculation program by
  Eric Jon Sundstrom, Paul Horn, Yuezhi Mao, Dmitri Zuev, Alec White,
  David Stuck, Shaama M.S., Shane Yost, Joonho Lee, David Small,
  Daniel Levine, Susi Lehtola, Hugh Burton, Evgeny Epifanovsky,
  Bang C. Huynh
 -----------------------------------------------------------------------
 Exchange:  PBE      Correlation:  PBE
 Using SG-1 standard quadrature grid
 using 4 threads for integral computing
 -------------------------------------------------------
 OpenMP Integral computing Module                
 Release: version 1.0, May 2013, Q-Chem Inc. Pittsburgh 
 -------------------------------------------------------
 A restricted SCF calculation will be
 performed using DIIS
 SCF converges when DIIS error is below 1.0e-08
 ---------------------------------------
  Cycle       Energy         DIIS error
 ---------------------------------------
    1    -365.2983991168      5.45e-02  
    2    -363.1683557890      6.30e-03  
    3    -362.9168636879      9.44e-03  
    4    -363.3375867048      2.59e-03  
    5    -363.3671655607      8.18e-04  
    6    -363.3699261976      2.94e-04  
    7    -363.3702585284      1.25e-04  
    8    -363.3703251034      3.64e-05  
    9    -363.3703308991      6.17e-06  
   10    -363.3703310242      3.61e-06  
   11    -363.3703310832      7.28e-07  
   12    -363.3703310851      4.26e-07  
   13    -363.3703310859      7.42e-08  
   14    -363.3703310859      3.37e-08  
   15    -363.3703310859      3.59e-09  Convergence criterion met
 ---------------------------------------
 SCF time:   CPU 29.22s  wall 7.00s 
 SCF   energy in the final basis set =     -363.3703310859
 Total energy in the final basis set =     -363.3703310859
 
 Direct TDDFT/TDA calculation will be performed
 Exchange:  PBE      Correlation:  PBE
 Using SG-1 standard quadrature grid
 Singlet excitation energies requested
 CIS energy converged when residual is below 10e- 6
 ---------------------------------------------------
 Iter    Rts Conv    Rts Left    Ttl Dev     Max Dev
 ---------------------------------------------------
   1         0           3      0.003914    0.001939
   2         0           3      0.002977    0.001483
   3         0           3      0.002972    0.001497
   4         0           3      0.002102    0.001408
   5         0           3      0.001542    0.001282
   6         0           3      0.000402    0.000336
   7         1           2      0.000316    0.000304
   8         1           2      0.000031    0.000029
   9         2           1      0.000006    0.000006
  10         2           1      0.000002    0.000001
  11         3           0      0.000000    0.000000    Roots Converged
 ---------------------------------------------------
 
 ---------------------------------------------------
         TDDFT/TDA Excitation Energies              
 ---------------------------------------------------

 Excited state   1: excitation energy (eV) =    4.5743
 Total energy for state  1:                  -363.20222801 au
    Multiplicity: Singlet
    Trans. Mom.: -0.0302 X   0.0366 Y   0.1087 Z
    Strength   :     0.0015769029
    D(   31) --> V(    2) amplitude =  0.9975

 Excited state   2: excitation energy (eV) =    4.5774
 Total energy for state  2:                  -363.20211371 au
    Multiplicity: Singlet
    Trans. Mom.:  0.4636 X  -0.5632 Y   0.0070 Z
    Strength   :     0.0596787494
    D(   29) --> V(    1) amplitude = -0.2517
    D(   31) --> V(    1) amplitude =  0.8895

 Excited state   3: excitation energy (eV) =    4.7538
 Total energy for state  3:                  -363.19563396 au
    Multiplicity: Singlet
    Trans. Mom.: -0.3475 X  -0.1152 Y   0.0001 Z
    Strength   :     0.0156106282
    D(   30) --> V(    1) amplitude =  0.7428
    D(   31) --> V(    3) amplitude = -0.6536
 
 ---------------------------------------------------
 Calculating Relaxed Density
 ---------------------------------------------------
 Iter    Rts Conv    Rts Left    Ttl Dev     Max Dev
 ---------------------------------------------------
   1         0           3      0.002370    0.001214
   2         0           3      0.000838    0.000407
   3         0           3      0.000230    0.000113
   4         0           3      0.000082    0.000041
   5         0           3      0.000012    0.000005
   6         3           0      0.000000    0.000000    Roots Converged
 ---------------------------------------------------
  SETman timing summary (seconds)
  CPU time               111.65s
  System time              0.00s
  Wall time               28.26s
 
 --------------------------------------------------------------
 
                    Orbital Energies (a.u.)
 --------------------------------------------------------------
 
 Alpha MOs
 -- Occupied --
-14.0571  -9.9331  -9.9317  -9.9026  -9.8989  -9.8966  -9.8965  -9.8922
 -9.8907  -0.9054  -0.7664  -0.7139  -0.6688  -0.6512  -0.5679  -0.5402
 -0.5267  -0.4895  -0.4348  -0.4225  -0.3924  -0.3831  -0.3793  -0.3655
 -0.3480  -0.3121  -0.2987  -0.2934  -0.2491  -0.2007  -0.1839
 -- Virtual --
 -0.0421  -0.0160  -0.0081   0.0043   0.0111   0.0202   0.0262   0.0284
  0.0460   0.0478   0.0545   0.0570   0.0726   0.0754   0.0952   0.0981
  0.0994   0.1122   0.1203   0.1243   0.1409   0.1417   0.1480   0.1500
  0.1572   0.1621   0.1689   0.1703   0.1805   0.1823   0.1842   0.1853
  0.2016   0.2058   0.2147   0.2204   0.2211   0.2276   0.2377   0.2422
  0.2548   0.2585   0.2614   0.2721   0.2755   0.2835   0.2944   0.3079
  0.3251   0.3374   0.3465   0.3679   0.3911   0.4141   0.4743   0.5370
  0.5774   0.6311   0.6374   0.6561   0.6723   0.6775   0.6852   0.6929
  0.6950   0.7088   0.7099   0.7326   0.7469   0.7521   0.7694   0.8077
  0.8444   0.8505   0.8618   0.8860   0.8916   0.9034   0.9072   0.9346
  0.9519   0.9830   1.0018   1.0112   1.0518   1.0674   1.0694   1.1248
  1.1332   1.1581   1.1761   1.1789   1.2027   1.2595   1.2652   1.2800
  1.3183   1.3510   1.3664   1.3954   1.3977   1.4034   1.4330   1.4382
  1.4855   1.5323   1.5924   1.7229   1.7774   1.8140   1.8236   1.8524
  1.8812   1.9233   1.9268   1.9347   1.9907   2.0268   2.0710   2.0996
  2.1014   2.1257   2.1747   2.1872   2.1921   2.2160   2.2432   2.3060
  2.3333   2.3740   2.4739   2.4808   2.5628   2.5844   2.5924   2.6219
  2.6583   2.7318   2.7705   2.7786   2.8778   2.9041   3.0296   3.1596
  3.3646   4.0590   4.1727   4.2026   4.2370   4.2726   4.3076   4.3913
  4.4303   4.6989
 --------------------------------------------------------------
 
          Ground-State Mulliken Net Atomic Charges

     Atom                 Charge (a.u.)
  ----------------------------------------
      1 C                     0.081362
      2 C                    -0.533204
      3 C                    -0.131062
      4 C                    -1.223589
      5 C                     1.678458
      6 C                    -0.837629
      7 N                    -0.428708
      8 C                     0.121482
      9 C                    -0.265360
     10 H                     0.412277
     11 H                     0.194565
     12 H                     0.196344
     13 H                     0.182748
     14 H                     0.182626
     15 H                     0.181489
     16 H                     0.188202
  ----------------------------------------
  Sum of atomic charges =     0.000000

 -----------------------------------------------------------------
                    Cartesian Multipole Moments
 -----------------------------------------------------------------
    Charge (ESU x 10^10)
                -0.0000
    Dipole Moment (Debye)
         X      -1.5418      Y       1.5876      Z       0.0010
       Tot       2.2130
    Quadrupole Moments (Debye-Ang)
        XX     -45.5657     XY      -3.2213     YY     -44.6134
        XZ      -0.0030     YZ       0.0031     ZZ     -58.5216
    Octopole Moments (Debye-Ang^2)
       XXX     -14.4460    XXY       8.1516    XYY      -8.1988
       YYY      10.5035    XXZ       0.0070    XYZ      -0.0064
       YYZ       0.0019    XZZ      -1.9782    YZZ       2.0069
       ZZZ      -0.0011
    Hexadecapole Moments (Debye-Ang^3)
      XXXX    -820.6639   XXXY     -21.5319   XXYY    -197.0218
      XYYY     -19.7294   YYYY    -373.2352   XXXZ      -0.0229
      XXYZ       0.0124   XYYZ      -0.0067   YYYZ       0.0136
      XXZZ    -188.4192   XYZZ      -3.9643   YYZZ     -93.4796
      XZZZ      -0.0007   YZZZ       0.0027   ZZZZ     -72.8441
 -----------------------------------------------------------------
 Calculating analytic gradient of the CIS energy
 CIS relaxed dipole moment
            1
    1  -0.8909856
    2   0.5102891
    3   0.0000118
	Magnitude:	 1.027 au	 2.610 Debye
 CIS 3 State Energy is -363.1956339629
 Gradient of the state energy (including CIS Excitation Energy)
            1           2           3           4           5           6
    1  -0.0299301  -0.0184750   0.0050054   0.0056868   0.0126699   0.0244787
    2   0.0049185  -0.0150009  -0.0243159  -0.0139125   0.0265219   0.0291160
    3  -0.0000045   0.0000037  -0.0000033  -0.0000056   0.0000311   0.0000036
            7           8           9          10          11          12
    1  -0.0004109  -0.0272701   0.0268309   0.0041089   0.0030996   0.0093579
    2  -0.0045827   0.0188906  -0.0175299  -0.0113063   0.0091282  -0.0011631
    3  -0.0000102  -0.0000277   0.0000285  -0.0000125  -0.0000055   0.0000016
           13          14          15          16
    1  -0.0076091  -0.0000107  -0.0078682   0.0003360
    2  -0.0046676  -0.0089957   0.0041254   0.0087739
    3   0.0000003   0.0000025  -0.0000009  -0.0000011
 Gradient time:  CPU 22.94 s  wall 5.79 s
 Geometry Optimization Parameters
   NAtoms,    NIC,     NZ,  NCons,   NDum,   NFix, NCnnct, MaxDiis
       16     116       0       0       0       0       0       0


** GEOMETRY OPTIMIZATION IN DELOCALIZED INTERNAL COORDINATES **
   Searching for a Minimum

   Optimization Cycle:   1

                       Coordinates (Angstroms)
     ATOM                X               Y               Z
      1  C         2.1510629040   -0.6892079969    0.0000583065
      2  C         2.1279268385    0.7158180020    0.0000481775
      3  C         0.9322968051    1.4130999466   -0.0000206639
      4  C        -0.2469111607    0.6702008918   -0.0000373513
      5  C        -0.2481930942   -0.7482991083    0.0000020775
      6  C         0.9794739374   -1.4235260513    0.0000165335
      7  N        -1.5617741827    1.0775918311   -0.0002621374
      8  C        -1.6201330769   -1.1629001718   -0.0001374500
      9  C        -2.3820131241   -0.0308062080    0.0002797387
     10  H        -1.8763152174    2.0300108152    0.0004667797
     11  H        -1.9921730325   -2.1730101887   -0.0003253498
     12  H        -3.4525491271    0.0824247420    0.0004541695
     13  H         3.0615938132    1.2620200454    0.0000497686
     14  H         0.9172517540    2.4953419460   -0.0000804893
     15  H         3.1042029277   -1.2007849526    0.0000467087
     16  H         1.0093479871   -2.5054210498   -0.0000328375
   Point Group: c1    Number of degrees of freedom:    42


   Energy is   -363.195633963


 Attempting to generate delocalized internal coordinates
 Initial Hessian constructed with Jon Baker's OPTIMIZE code

 42 Hessian modes will be used to form the next step
  Hessian Eigenvalues:
     0.018594    0.019738    0.020011    0.020794    0.021683    0.022200
     0.022636    0.023004    0.023236    0.023608    0.023851    0.023984
     0.024127    0.160000    0.160000    0.160000    0.160000    0.160000
     0.160000    0.160000    0.220000    0.221879    0.226618    0.240111
     0.246509    0.357123    0.357170    0.357835    0.357899    0.364196
     0.364272    0.370088    0.384319    0.426334    0.434649    0.457693
     0.466917    0.471622    0.474685    0.475669    0.481247    0.509555

 Minimum search - taking simple RFO step
 Searching for Lamda that Minimizes Along All modes
 Value Taken    Lamda =  -0.01950154
 Step Taken.  Stepsize is  0.202876

                             Maximum     Tolerance    Cnvgd?
         Gradient           0.060132      0.000300      NO
         Displacement       0.130844      0.001200      NO
         Energy change     *********      0.000001      NO


 New Cartesian Coordinates Obtained by Inverse Iteration

 Displacement from previous Coordinates is:  0.330259
 ----------------------------------------------------------------
             Standard Nuclear Orientation (Angstroms)
    I     Atom           X                Y                Z
 ----------------------------------------------------------------
    1      C       2.1895744713    -0.7060537353     0.0000085533
    2      C       2.1657260679     0.7400022217     0.0000106913
    3      C       0.9421266999     1.4534646589     0.0000301735
    4      C      -0.2546375720     0.6842071769     0.0000232424
    5      C      -0.2569028480    -0.7759233882    -0.0000068293
    6      C       0.9803745047    -1.4722121842    -0.0000160513
    7      N      -1.5859565247     1.0941283088    -0.0001656319
    8      C      -1.6310321596    -1.1816166035     0.0000024662
    9      C      -2.4218938503    -0.0234214137     0.0000871471
   10      H      -1.9047539243     2.0587849645     0.0006068624
   11      H      -2.0060411830    -2.2047938581    -0.0000808543
   12      H      -3.5053428559     0.0913445842     0.0001149521
   13      H       3.1095698598     1.2935900971    -0.0000128598
   14      H       0.9227156724     2.5482781479    -0.0000161773
   15      H       3.1552211067    -1.2206619916    -0.0000196036
   16      H       1.0043474863    -2.5665644928    -0.0000400996
 ----------------------------------------------------------------
 Molecular Point Group                 C1    NOp =  1
 Largest Abelian Subgroup              C1    NOp =  1
 Nuclear Repulsion Energy =         393.96899366 hartrees
 There are       31 alpha and       31 beta electrons
 Applying Cartesian multipole field
    Component          Value
    ---------          -----
     (2,0,0)        1.00000E-11
     (0,2,0)        2.00000E-11
     (0,0,2)       -3.00000E-11
 Nucleus-field energy     =     0.0000000121 hartrees
 Requested basis set is 6-31+G(d)
 There are 59 shells and 185 basis functions
 A cutoff of  1.0D-12 yielded   1656 shell pairs
 There are     17099 function pairs
 Smallest overlap matrix eigenvalue = 1.55E-06
 Guess MOs from SCF MO coefficient file

 -----------------------------------------------------------------------
  General SCF calculation program by
  Eric Jon Sundstrom, Paul Horn, Yuezhi Mao, Dmitri Zuev, Alec White,
  David Stuck, Shaama M.S., Shane Yost, Joonho Lee, David Small,
  Daniel Levine, Susi Lehtola, Hugh Burton, Evgeny Epifanovsky,
  Bang C. Huynh
 -----------------------------------------------------------------------
 Exchange:  PBE      Correlation:  PBE
 Using SG-1 standard quadrature grid
 using 4 threads for integral computing
 -------------------------------------------------------
 OpenMP Integral computing Module                
 Release: version 1.0, May 2013, Q-Chem Inc. Pittsburgh 
 -------------------------------------------------------
 A restricted SCF calculation will be
 performed using DIIS
 SCF converges when DIIS error is below 1.0e-08
 ---------------------------------------
  Cycle       Energy         DIIS error
 ---------------------------------------
    1    -363.3647843576      1.01e-03  
    2    -363.3683731684      4.68e-04  
    3    -363.3685205614      4.40e-04  
    4    -363.3692846945      1.46e-04  
    5    -363.3693742229      3.62e-05  
    6    -363.3693787585      2.04e-05  
    7    -363.3693808012      3.22e-06  
    8    -363.3693808397      1.56e-06  
    9    -363.3693808516      3.72e-07  
   10    -363.3693808522      9.03e-08  
   11    -363.3693808523      4.02e-08  
   12    -363.3693808523      9.17e-09  Convergence criterion met
 ---------------------------------------
 SCF time:   CPU 23.43s  wall 6.00s 
 SCF   energy in the final basis set =     -363.3693808523
 Total energy in the final basis set =     -363.3693808523
 
 Direct TDDFT/TDA calculation will be performed
 Exchange:  PBE      Correlation:  PBE
 Using SG-1 standard quadrature grid
 Singlet excitation energies requested
 CIS energy converged when residual is below 10e- 6
 ---------------------------------------------------
 Iter    Rts Conv    Rts Left    Ttl Dev     Max Dev
 ---------------------------------------------------
   1         0           3      0.005085    0.002119
   2         0           3      0.003859    0.001823
   3         0           3      0.002791    0.001515
   4         0           3      0.001301    0.000724
   5         0           3      0.000441    0.000207
   6         0           3      0.000212    0.000158
   7         0           3      0.000034    0.000024
   8         1           2      0.000006    0.000004
   9         3           0      0.000001    0.000001    Roots Converged
 ---------------------------------------------------
 
 ---------------------------------------------------
         TDDFT/TDA Excitation Energies              
 ---------------------------------------------------

 Excited state   1: excitation energy (eV) =    4.3871
 Total energy for state  1:                  -363.20815948 au
    Multiplicity: Singlet
    Trans. Mom.: -0.5321 X   0.5617 Y   0.0002 Z
    Strength   :     0.0643430408
    D(   29) --> V(    1) amplitude = -0.2489
    D(   31) --> V(    1) amplitude =  0.8835

 Excited state   2: excitation energy (eV) =    4.4659
 Total energy for state  2:                  -363.20526028 au
    Multiplicity: Singlet
    Trans. Mom.:  0.2424 X   0.2152 Y  -0.0002 Z
    Strength   :     0.0114956130
    D(   30) --> V(    1) amplitude =  0.7512
    D(   31) --> V(    2) amplitude =  0.6379

 Excited state   3: excitation energy (eV) =    5.5548
 Total energy for state  3:                  -363.16524472 au
    Multiplicity: Singlet
    Trans. Mom.: -0.6448 X   0.0266 Y   0.0001 Z
    Strength   :     0.0566867050
    D(   29) --> V(    1) amplitude =  0.5537
    D(   30) --> V(    2) amplitude = -0.3189
    D(   31) --> V(    2) amplitude =  0.2493
    D(   31) --> V(    6) amplitude = -0.6230
 
 ---------------------------------------------------
 Calculating Relaxed Density
 ---------------------------------------------------
 Iter    Rts Conv    Rts Left    Ttl Dev     Max Dev
 ---------------------------------------------------
   1         0           3      0.001955    0.000941
   2         0           3      0.000923    0.000465
   3         0           3      0.000228    0.000101
   4         0           3      0.000074    0.000037
   5         0           3      0.000010    0.000005
   6         3           0      0.000000    0.000000    Roots Converged
 ---------------------------------------------------
  SETman timing summary (seconds)
  CPU time               105.52s
  System time              0.00s
  Wall time               27.63s
 
 --------------------------------------------------------------
 
                    Orbital Energies (a.u.)
 --------------------------------------------------------------
 
 Alpha MOs
 -- Occupied --
-14.0634  -9.9424  -9.9417  -9.9131  -9.9086  -9.9080  -9.9078  -9.9052
 -9.8991  -0.8962  -0.7532  -0.7082  -0.6608  -0.6453  -0.5634  -0.5395
 -0.5210  -0.4841  -0.4360  -0.4184  -0.3892  -0.3828  -0.3724  -0.3605
 -0.3484  -0.3131  -0.2953  -0.2913  -0.2483  -0.1982  -0.1827
 -- Virtual --
 -0.0494  -0.0177  -0.0173   0.0036   0.0101   0.0142   0.0239   0.0269
  0.0461   0.0481   0.0518   0.0541   0.0702   0.0757   0.0943   0.0955
  0.0971   0.1091   0.1187   0.1215   0.1335   0.1370   0.1433   0.1458
  0.1514   0.1591   0.1646   0.1650   0.1765   0.1770   0.1825   0.1836
  0.1955   0.1991   0.2102   0.2170   0.2184   0.2199   0.2318   0.2393
  0.2505   0.2546   0.2574   0.2601   0.2636   0.2768   0.2886   0.2984
  0.3101   0.3252   0.3318   0.3565   0.3720   0.3990   0.4563   0.5060
  0.5378   0.6311   0.6375   0.6550   0.6633   0.6729   0.6775   0.6841
  0.6926   0.6993   0.7073   0.7292   0.7362   0.7433   0.7604   0.8027
  0.8357   0.8427   0.8515   0.8835   0.8902   0.9008   0.9038   0.9321
  0.9391   0.9797   0.9963   1.0025   1.0467   1.0578   1.0614   1.1161
  1.1260   1.1474   1.1734   1.1794   1.1893   1.2536   1.2589   1.2819
  1.3048   1.3468   1.3469   1.3761   1.3891   1.4087   1.4259   1.4278
  1.4730   1.5152   1.5741   1.7016   1.7435   1.7949   1.8121   1.8240
  1.8305   1.8931   1.9014   1.9246   1.9456   1.9667   2.0281   2.0376
  2.0718   2.0867   2.1415   2.1556   2.1639   2.1690   2.2081   2.2679
  2.3088   2.3544   2.4278   2.4398   2.5262   2.5413   2.5601   2.5811
  2.6189   2.6890   2.7231   2.7390   2.8548   2.8708   2.9686   3.1131
  3.2597   4.0377   4.1313   4.1965   4.2198   4.2525   4.2985   4.3738
  4.4179   4.6612
 --------------------------------------------------------------
 
          Ground-State Mulliken Net Atomic Charges

     Atom                 Charge (a.u.)
  ----------------------------------------
      1 C                     0.023253
      2 C                    -0.473224
      3 C                    -0.239825
      4 C                    -1.166451
      5 C                     1.591459
      6 C                    -0.696485
      7 N                    -0.401689
      8 C                     0.048467
      9 C                    -0.249091
     10 H                     0.415146
     11 H                     0.197091
     12 H                     0.200068
     13 H                     0.186675
     14 H                     0.186900
     15 H                     0.184903
     16 H                     0.192802
  ----------------------------------------
  Sum of atomic charges =     0.000000

 -----------------------------------------------------------------
                    Cartesian Multipole Moments
 -----------------------------------------------------------------
    Charge (ESU x 10^10)
                 0.0000
    Dipole Moment (Debye)
         X      -1.5994      Y       1.6107      Z       0.0010
       Tot       2.2699
    Quadrupole Moments (Debye-Ang)
        XX     -45.4145     XY      -3.2979     YY     -44.3109
        XZ      -0.0027     YZ       0.0030     ZZ     -59.3510
    Octopole Moments (Debye-Ang^2)
       XXX     -15.1601    XXY       8.8375    XYY      -8.3330
       YYY      10.8408    XXZ       0.0042    XYZ      -0.0062
       YYZ       0.0043    XZZ      -2.3035    YZZ       2.1173
       ZZZ      -0.0012
    Hexadecapole Moments (Debye-Ang^3)
      XXXX    -840.9197   XXXY     -22.6039   XXYY    -203.2481
      XYYY     -20.4125   YYYY    -386.9985   XXXZ      -0.0126
      XXYZ       0.0111   XYYZ      -0.0106   YYYZ       0.0118
      XXZZ    -196.2668   XYZZ      -3.9859   YYZZ     -98.1985
      XZZZ       0.0012   YZZZ       0.0002   ZZZZ     -75.1628
 -----------------------------------------------------------------
 Calculating analytic gradient of the CIS energy
 CIS relaxed dipole moment
            1
    1   0.3508850
    2   0.9466698
    3  -0.0000591
	Magnitude:	 1.010 au	 2.566 Debye
 CIS 3 State Energy is -363.1652447162
 Gradient of the state energy (including CIS Excitation Energy)
            1           2           3           4           5           6
    1   0.0092128  -0.0165758   0.0281985  -0.0063824   0.0061569  -0.0252371
    2  -0.0098546   0.0319003   0.0010575   0.0078640  -0.0266661  -0.0106265
    3   0.0000031  -0.0000032   0.0000074  -0.0000092  -0.0000041   0.0000002
            7           8           9          10          11          12
    1  -0.0122384  -0.0063005   0.0267321  -0.0008287  -0.0006842  -0.0013003
    2  -0.0105225   0.0332232  -0.0150472  -0.0002778  -0.0003118  -0.0005735
    3   0.0000198   0.0000166  -0.0000229  -0.0000071  -0.0000040   0.0000058
           13          14          15          16
    1  -0.0002326   0.0000650   0.0002039  -0.0007891
    2   0.0006311   0.0000701  -0.0005446  -0.0003217
    3  -0.0000004   0.0000003  -0.0000008  -0.0000014
 Gradient time:  CPU 22.46 s  wall 7.62 s
 Geometry Optimization Parameters
   NAtoms,    NIC,     NZ,  NCons,   NDum,   NFix, NCnnct, MaxDiis
       16     116       0       0       0       0       0       0

 Cartesian Hessian Update
 Hessian updated using BFGS update


** GEOMETRY OPTIMIZATION IN DELOCALIZED INTERNAL COORDINATES **
   Searching for a Minimum

   Optimization Cycle:   2

                       Coordinates (Angstroms)
     ATOM                X               Y               Z
      1  C         2.1895744713   -0.7060537353    0.0000085533
      2  C         2.1657260679    0.7400022217    0.0000106913
      3  C         0.9421266999    1.4534646589    0.0000301735
      4  C        -0.2546375720    0.6842071769    0.0000232424
      5  C        -0.2569028480   -0.7759233882   -0.0000068293
      6  C         0.9803745047   -1.4722121842   -0.0000160513
      7  N        -1.5859565247    1.0941283088   -0.0001656319
      8  C        -1.6310321596   -1.1816166035    0.0000024662
      9  C        -2.4218938503   -0.0234214137    0.0000871471
     10  H        -1.9047539243    2.0587849645    0.0006068624
     11  H        -2.0060411830   -2.2047938581   -0.0000808543
     12  H        -3.5053428559    0.0913445842    0.0001149521
     13  H         3.1095698598    1.2935900971   -0.0000128598
     14  H         0.9227156724    2.5482781479   -0.0000161773
     15  H         3.1552211067   -1.2206619916   -0.0000196036
     16  H         1.0043474863   -2.5665644928   -0.0000400996
   Point Group: c1    Number of degrees of freedom:    42


   Energy is   -363.165244716

 Hessian updated using BFGS update

 40 Hessian modes will be used to form the next step
  Hessian Eigenvalues:
     0.018594    0.019738    0.020011    0.020794    0.021683    0.022200
     0.022636    0.023004    0.023236    0.023608    0.023851    0.023984
     0.024127    0.159861    0.160000    0.160000    0.160000    0.160083
     0.219562    0.222919    0.227295    0.239960    0.246357    0.284713
     0.357147    0.357485    0.357868    0.361085    0.364236    0.371129
     0.371751    0.392829    0.427164    0.453524    0.463621    0.466932
     0.471913    0.475718    0.500182    0.822468

 Minimum search - taking simple RFO step
 Searching for Lamda that Minimizes Along All modes
 Value Taken    Lamda =  -0.00641360
 Step Taken.  Stepsize is  0.127725

                             Maximum     Tolerance    Cnvgd?
         Gradient           0.030103      0.000300      NO
         Displacement       0.055507      0.001200      NO
         Energy change      0.030389      0.000001      NO


 New Cartesian Coordinates Obtained by Inverse Iteration

 Displacement from previous Coordinates is:  0.192866
 ----------------------------------------------------------------
             Standard Nuclear Orientation (Angstroms)
    I     Atom           X                Y                Z
 ----------------------------------------------------------------
    1      C       2.2154623723    -0.7070661547     0.0000047433
    2      C       2.1841259050     0.7257966069     0.0000074566
    3      C       0.9292407754     1.4453255005     0.0000051544
    4      C      -0.2664585782     0.6824095049     0.0000265806
    5      C      -0.2646941861    -0.7726298705    -0.0000272676
    6      C       1.0006757725    -1.4626979276    -0.0000295264
    7      N      -1.5947166351     1.1079646980    -0.0001633964
    8      C      -1.6445580705    -1.2033901164    -0.0000099753
    9      C      -2.4585826023    -0.0119324091     0.0000760890
   10      H      -1.8982061944     2.0819257069     0.0007035640
   11      H      -2.0090895869    -2.2341542943    -0.0000498960
   12      H      -3.5431804787     0.1156937640     0.0000655688
   13      H       3.1296966915     1.2840860836    -0.0000050642
   14      H       0.9074513969     2.5440745737    -0.0000502773
   15      H       3.1846025843    -1.2224116096     0.0000029060
   16      H       1.0313257855    -2.5604415638    -0.0000306783
 ----------------------------------------------------------------
 Molecular Point Group                 C1    NOp =  1
 Largest Abelian Subgroup              C1    NOp =  1
 Nuclear Repulsion Energy =         391.43326273 hartrees
 There are       31 alpha and       31 beta electrons
 Applying Cartesian multipole field
    Component          Value
    ---------          -----
     (2,0,0)        1.00000E-11
     (0,2,0)        2.00000E-11
     (0,0,2)       -3.00000E-11
 Nucleus-field energy     =     0.0000000123 hartrees
 Requested basis set is 6-31+G(d)
 There are 59 shells and 185 basis functions
 A cutoff of  1.0D-12 yielded   1656 shell pairs
 There are     17099 function pairs
 Smallest overlap matrix eigenvalue = 1.57E-06
 Guess MOs from SCF MO coefficient file

 -----------------------------------------------------------------------
  General SCF calculation program by
  Eric Jon Sundstrom, Paul Horn, Yuezhi Mao, Dmitri Zuev, Alec White,
  David Stuck, Shaama M.S., Shane Yost, Joonho Lee, David Small,
  Daniel Levine, Susi Lehtola, Hugh Burton, Evgeny Epifanovsky,
  Bang C. Huynh
 -----------------------------------------------------------------------
 Exchange:  PBE      Correlation:  PBE
 Using SG-1 standard quadrature grid
 using 4 threads for integral computing
 -------------------------------------------------------
 OpenMP Integral computing Module                
 Release: version 1.0, May 2013, Q-Chem Inc. Pittsburgh 
 -------------------------------------------------------
 A restricted SCF calculation will be
 performed using DIIS
 SCF converges when DIIS error is below 1.0e-08
 ---------------------------------------
  Cycle       Energy         DIIS error
 ---------------------------------------
    1    -363.3621508273      6.88e-04  
    2    -363.3644135399      2.80e-04  
    3    -363.3640800348      3.91e-04  
    4    -363.3647194799      6.98e-05  
    5    -363.3647380387      2.84e-05  
    6    -363.3647413787      1.10e-05  
    7    -363.3647419837      2.90e-06  
    8    -363.3647420194      9.11e-07  
    9    -363.3647420232      4.43e-07  
   10    -363.3647420242      7.45e-08  
   11    -363.3647420242      2.64e-08  
   12    -363.3647420242      7.27e-09  Convergence criterion met
 ---------------------------------------
 SCF time:   CPU 24.27s  wall 7.00s 
 SCF   energy in the final basis set =     -363.3647420242
 Total energy in the final basis set =     -363.3647420242
 
 Direct TDDFT/TDA calculation will be performed
 Exchange:  PBE      Correlation:  PBE
 Using SG-1 standard quadrature grid
 Singlet excitation energies requested
 CIS energy converged when residual is below 10e- 6
 ---------------------------------------------------
 Iter    Rts Conv    Rts Left    Ttl Dev     Max Dev
 ---------------------------------------------------
   1         0           3      0.004023    0.002004
   2         0           3      0.002969    0.001848
   3         0           3      0.002271    0.001898
   4         0           3      0.001636    0.001506
   5         0           3      0.000651    0.000544
   6         1           2      0.000146    0.000136
   7         1           2      0.000028    0.000026
   8         2           1      0.000007    0.000006
   9         2           1      0.000001    0.000001
  10         3           0      0.000001    0.000000    Roots Converged
 ---------------------------------------------------
 
 ---------------------------------------------------
         TDDFT/TDA Excitation Energies              
 ---------------------------------------------------

 Excited state   1: excitation energy (eV) =    4.2641
 Total energy for state  1:                  -363.20803864 au
    Multiplicity: Singlet
    Trans. Mom.: -0.6146 X   0.6209 Y   0.0001 Z
    Strength   :     0.0797480283
    D(   29) --> V(    1) amplitude = -0.2468
    D(   31) --> V(    1) amplitude =  0.8781

 Excited state   2: excitation energy (eV) =    4.4216
 Total energy for state  2:                  -363.20224974 au
    Multiplicity: Singlet
    Trans. Mom.:  0.3188 X   0.1213 Y  -0.0008 Z
    Strength   :     0.0126058396
    D(   30) --> V(    1) amplitude =  0.7309
    D(   31) --> V(    3) amplitude =  0.6669

 Excited state   3: excitation energy (eV) =    4.4347
 Total energy for state  3:                  -363.20176884 au
    Multiplicity: Singlet
    Trans. Mom.:  0.0024 X   0.0002 Y   0.1242 Z
    Strength   :     0.0016759729
    D(   31) --> V(    2) amplitude =  0.9995
 
 ---------------------------------------------------
 Calculating Relaxed Density
 ---------------------------------------------------
 Iter    Rts Conv    Rts Left    Ttl Dev     Max Dev
 ---------------------------------------------------
   1         0           3      0.002736    0.001484
   2         0           3      0.000926    0.000492
   3         0           3      0.000252    0.000129
   4         0           3      0.000089    0.000049
   5         0           3      0.000016    0.000008
   6         3           0      0.000000    0.000000    Roots Converged
 ---------------------------------------------------
  SETman timing summary (seconds)
  CPU time               106.45s
  System time              0.00s
  Wall time               36.17s
 
 --------------------------------------------------------------
 
                    Orbital Energies (a.u.)
 --------------------------------------------------------------
 
 Alpha MOs
 -- Occupied --
-14.0656  -9.9491  -9.9437  -9.9159  -9.9129  -9.9107  -9.9104  -9.9070
 -9.9062  -0.8912  -0.7511  -0.7032  -0.6626  -0.6401  -0.5625  -0.5401
 -0.5198  -0.4820  -0.4350  -0.4198  -0.3875  -0.3810  -0.3696  -0.3600
 -0.3492  -0.3130  -0.2964  -0.2901  -0.2451  -0.2014  -0.1803
 -- Virtual --
 -0.0544  -0.0176  -0.0169   0.0032   0.0073   0.0099   0.0227   0.0263
  0.0462   0.0487   0.0503   0.0537   0.0703   0.0754   0.0935   0.0944
  0.0958   0.1080   0.1174   0.1209   0.1312   0.1352   0.1399   0.1457
  0.1498   0.1574   0.1637   0.1639   0.1724   0.1775   0.1821   0.1833
  0.1910   0.1963   0.2087   0.2146   0.2183   0.2187   0.2289   0.2388
  0.2471   0.2530   0.2567   0.2589   0.2622   0.2726   0.2851   0.2938
  0.3103   0.3217   0.3285   0.3553   0.3559   0.3960   0.4424   0.5028
  0.5327   0.6306   0.6361   0.6543   0.6605   0.6690   0.6772   0.6782
  0.6914   0.6987   0.7070   0.7273   0.7289   0.7409   0.7541   0.8020
  0.8292   0.8419   0.8472   0.8850   0.8919   0.8979   0.9025   0.9304
  0.9383   0.9745   0.9948   1.0004   1.0428   1.0545   1.0605   1.1128
  1.1224   1.1450   1.1706   1.1804   1.1879   1.2451   1.2588   1.2838
  1.2993   1.3444   1.3558   1.3744   1.3850   1.4069   1.4229   1.4297
  1.4707   1.5164   1.5680   1.6838   1.7324   1.7803   1.8115   1.8189
  1.8318   1.8833   1.8900   1.9166   1.9202   1.9542   2.0081   2.0137
  2.0658   2.0681   2.1384   2.1418   2.1423   2.1492   2.2002   2.2479
  2.2943   2.3407   2.4177   2.4242   2.5160   2.5386   2.5540   2.5674
  2.6079   2.6750   2.7123   2.7318   2.8290   2.8620   2.9314   3.0998
  3.2422   4.0295   4.1231   4.1859   4.2163   4.2369   4.2969   4.3695
  4.4124   4.6529
 --------------------------------------------------------------
 
          Ground-State Mulliken Net Atomic Charges

     Atom                 Charge (a.u.)
  ----------------------------------------
      1 C                     0.050991
      2 C                    -0.474210
      3 C                    -0.254075
      4 C                    -1.274357
      5 C                     1.675717
      6 C                    -0.662038
      7 N                    -0.391622
      8 C                    -0.001757
      9 C                    -0.239112
     10 H                     0.415794
     11 H                     0.199492
     12 H                     0.202621
     13 H                     0.187336
     14 H                     0.186171
     15 H                     0.187150
     16 H                     0.191899
  ----------------------------------------
  Sum of atomic charges =     0.000000

 -----------------------------------------------------------------
                    Cartesian Multipole Moments
 -----------------------------------------------------------------
    Charge (ESU x 10^10)
                -0.0000
    Dipole Moment (Debye)
         X      -1.5491      Y       1.6013      Z       0.0011
       Tot       2.2280
    Quadrupole Moments (Debye-Ang)
        XX     -45.1857     XY      -3.4667     YY     -44.3565
        XZ      -0.0028     YZ       0.0032     ZZ     -59.6482
    Octopole Moments (Debye-Ang^2)
       XXX     -14.1413    XXY       8.6183    XYY      -8.5281
       YYY      11.0751    XXZ       0.0051    XYZ      -0.0069
       YYZ       0.0060    XZZ      -1.8145    YZZ       2.2022
       ZZZ       0.0002
    Hexadecapole Moments (Debye-Ang^3)
      XXXX    -851.7204   XXXY     -22.8213   XXYY    -206.2047
      XYYY     -19.1245   YYYY    -387.5926   XXXZ      -0.0105
      XXYZ       0.0118   XYYZ      -0.0128   YYYZ       0.0124
      XXZZ    -200.6427   XYZZ      -3.6410   YYZZ     -98.9449
      XZZZ       0.0014   YZZZ      -0.0001   ZZZZ     -76.0450
 -----------------------------------------------------------------
 Calculating analytic gradient of the CIS energy
 CIS relaxed dipole moment
            1
    1   2.2700562
    2  -2.8150343
    3   0.0006674
	Magnitude:	 3.616 au	 9.192 Debye
 CIS 3 State Energy is -363.2017688400
 Gradient of the state energy (including CIS Excitation Energy)
            1           2           3           4           5           6
    1   0.0150057   0.0158026   0.0034360  -0.0080443  -0.0006585  -0.0016329
    2  -0.0134105   0.0180120   0.0170727   0.0027968  -0.0051164  -0.0127325
    3  -0.0000195   0.0000331  -0.0000004  -0.0000606   0.0000345   0.0000374
            7           8           9          10          11          12
    1   0.0185694  -0.0145876  -0.0519962   0.0148615   0.0009751   0.0008104
    2   0.0841269  -0.0183362  -0.0335412  -0.0353875  -0.0017132  -0.0034528
    3  -0.0000451  -0.0000118   0.0000423   0.0000253  -0.0000019  -0.0000093
           13          14          15          16
    1   0.0032859   0.0015718   0.0027474  -0.0001461
    2   0.0004550   0.0039549  -0.0002132  -0.0025146
    3   0.0000035  -0.0000067  -0.0000144  -0.0000064
 Gradient time:  CPU 22.14 s  wall 7.52 s
 Geometry Optimization Parameters
   NAtoms,    NIC,     NZ,  NCons,   NDum,   NFix, NCnnct, MaxDiis
       16     116       0       0       0       0       0       0

 Cartesian Hessian Update
 Hessian updated using BFGS update


** GEOMETRY OPTIMIZATION IN DELOCALIZED INTERNAL COORDINATES **
   Searching for a Minimum

   Optimization Cycle:   3

                       Coordinates (Angstroms)
     ATOM                X               Y               Z
      1  C         2.2154623723   -0.7070661547    0.0000047433
      2  C         2.1841259050    0.7257966069    0.0000074566
      3  C         0.9292407754    1.4453255005    0.0000051544
      4  C        -0.2664585782    0.6824095049    0.0000265806
      5  C        -0.2646941861   -0.7726298705   -0.0000272676
      6  C         1.0006757725   -1.4626979276   -0.0000295264
      7  N        -1.5947166351    1.1079646980   -0.0001633964
      8  C        -1.6445580705   -1.2033901164   -0.0000099753
      9  C        -2.4585826023   -0.0119324091    0.0000760890
     10  H        -1.8982061944    2.0819257069    0.0007035640
     11  H        -2.0090895869   -2.2341542943   -0.0000498960
     12  H        -3.5431804787    0.1156937640    0.0000655688
     13  H         3.1296966915    1.2840860836   -0.0000050642
     14  H         0.9074513969    2.5440745737   -0.0000502773
     15  H         3.1846025843   -1.2224116096    0.0000029060
     16  H         1.0313257855   -2.5604415638   -0.0000306783
   Point Group: c1    Number of degrees of freedom:    42


   Energy is   -363.201768840

 Hessian updated using BFGS update

 41 Hessian modes will be used to form the next step
  Hessian Eigenvalues:
     0.018594    0.019738    0.020011    0.020794    0.021683    0.022200
     0.022636    0.023004    0.023236    0.023608    0.023851    0.023984
     0.024127    0.155781    0.160000    0.160000    0.160000    0.160016
     0.160763    0.206008    0.221926    0.227049    0.241979    0.245826
     0.251450    0.357159    0.357460    0.357870    0.360022    0.364271
     0.368854    0.372614    0.392355    0.427482    0.453361    0.462900
     0.468073    0.474611    0.495343    0.584576    1.492142

 Minimum search - taking simple RFO step
 Searching for Lamda that Minimizes Along All modes
 Value Taken    Lamda =  -0.00865137
 Step Taken.  Stepsize is  0.120944

                             Maximum     Tolerance    Cnvgd?
         Gradient           0.042957      0.000300      NO
         Displacement       0.053232      0.001200      NO
         Energy change     -0.036524      0.000001      NO


 New Cartesian Coordinates Obtained by Inverse Iteration

 Displacement from previous Coordinates is:  0.173587
 ----------------------------------------------------------------
             Standard Nuclear Orientation (Angstroms)
    I     Atom           X                Y                Z
 ----------------------------------------------------------------
    1      C       2.2154827145    -0.7051327177    -0.0000243542
    2      C       2.1704153892     0.7005662419    -0.0000787273
    3      C       0.9063411161     1.4210334023     0.0001170346
    4      C      -0.2723444396     0.6715127225     0.0002581657
    5      C      -0.2573196855    -0.7653718505    -0.0000242929
    6      C       1.0135497201    -1.4500498640    -0.0001450135
    7      N      -1.5942130417     1.1022120487    -0.0000426420
    8      C      -1.6258261426    -1.2038333429     0.0001018764
    9      C      -2.4448371117     0.0053829262     0.0000372912
   10      H      -1.9107331130     2.0992816788     0.0004646967
   11      H      -1.9917430887    -2.2349428207     0.0000758772
   12      H      -3.5290898103     0.1524275088    -0.0001107796
   13      H       3.1108147769     1.2666757640    -0.0001457449
   14      H       0.8775452348     2.5185433812     0.0001050761
   15      H       3.1854165825    -1.2183279921     0.0000537799
   16      H       1.0496358504    -2.5474245939    -0.0001162623
 ----------------------------------------------------------------
 Molecular Point Group                 C1    NOp =  1
 Largest Abelian Subgroup              C1    NOp =  1
 Nuclear Repulsion Energy =         393.66542081 hartrees
 There are       31 alpha and       31 beta electrons
 Applying Cartesian multipole field
    Component          Value
    ---------          -----
     (2,0,0)        1.00000E-11
     (0,2,0)        2.00000E-11
     (0,0,2)       -3.00000E-11
 Nucleus-field energy     =     0.0000000121 hartrees
 Requested basis set is 6-31+G(d)
 There are 59 shells and 185 basis functions
 A cutoff of  1.0D-12 yielded   1655 shell pairs
 There are     17095 function pairs
 Smallest overlap matrix eigenvalue = 1.39E-06
 Guess MOs from SCF MO coefficient file

 -----------------------------------------------------------------------
  General SCF calculation program by
  Eric Jon Sundstrom, Paul Horn, Yuezhi Mao, Dmitri Zuev, Alec White,
  David Stuck, Shaama M.S., Shane Yost, Joonho Lee, David Small,
  Daniel Levine, Susi Lehtola, Hugh Burton, Evgeny Epifanovsky,
  Bang C. Huynh
 -----------------------------------------------------------------------
 Exchange:  PBE      Correlation:  PBE
 Using SG-1 standard quadrature grid
 using 4 threads for integral computing
 -------------------------------------------------------
 OpenMP Integral computing Module                
 Release: version 1.0, May 2013, Q-Chem Inc. Pittsburgh 
 -------------------------------------------------------
 A restricted SCF calculation will be
 performed using DIIS
 SCF converges when DIIS error is below 1.0e-08
 ---------------------------------------
  Cycle       Energy         DIIS error
 ---------------------------------------
    1    -363.3615319117      6.46e-04  
    2    -363.3633664449      2.32e-04  
    3    -363.3630197410      3.49e-04  
    4    -363.3635405481      1.09e-04  
    5    -363.3635942779      3.75e-05  
    6    -363.3636008094      6.78e-06  
    7    -363.3636010084      2.26e-06  
    8    -363.3636010292      9.76e-07  
    9    -363.3636010338      2.49e-07  
   10    -363.3636010341      6.54e-08  
   11    -363.3636010341      2.31e-08  
   12    -363.3636010341      6.67e-09  Convergence criterion met
 ---------------------------------------
 SCF time:   CPU 24.87s  wall 9.00s 
 SCF   energy in the final basis set =     -363.3636010341
 Total energy in the final basis set =     -363.3636010341
 
 Direct TDDFT/TDA calculation will be performed
 Exchange:  PBE      Correlation:  PBE
 Using SG-1 standard quadrature grid
 Singlet excitation energies requested
 CIS energy converged when residual is below 10e- 6
 ---------------------------------------------------
 Iter    Rts Conv    Rts Left    Ttl Dev     Max Dev
 ---------------------------------------------------
   1         0           3      0.004055    0.002040
   2         0           3      0.002839    0.001556
   3         0           3      0.002059    0.001080
   4         0           3      0.001106    0.000789
   5         1           2      0.001256    0.001060
   6         1           2      0.000325    0.000277
   7         1           2      0.000064    0.000054
   8         1           2      0.000016    0.000013
   9         2           1      0.000004    0.000004
  10         3           0      0.000001    0.000001    Roots Converged
 ---------------------------------------------------
 
 ---------------------------------------------------
         TDDFT/TDA Excitation Energies              
 ---------------------------------------------------

 Excited state   1: excitation energy (eV) =    4.2140
 Total energy for state  1:                  -363.20874003 au
    Multiplicity: Singlet
    Trans. Mom.:  0.7691 X  -0.6204 Y  -0.0003 Z
    Strength   :     0.1007949643
    D(   29) --> V(    1) amplitude = -0.2486
    D(   31) --> V(    1) amplitude =  0.8796

 Excited state   2: excitation energy (eV) =    4.2319
 Total energy for state  2:                  -363.20808208 au
    Multiplicity: Singlet
    Trans. Mom.:  0.0015 X  -0.0013 Y   0.1188 Z
    Strength   :     0.0014632325
    D(   31) --> V(    2) amplitude =  0.9996

 Excited state   3: excitation energy (eV) =    4.5103
 Total energy for state  3:                  -363.19785118 au
    Multiplicity: Singlet
    Trans. Mom.: -0.1340 X  -0.1438 Y  -0.0000 Z
    Strength   :     0.0042691657
    D(   30) --> V(    1) amplitude =  0.7203
    D(   31) --> V(    3) amplitude =  0.6767
 
 ---------------------------------------------------
 Calculating Relaxed Density
 ---------------------------------------------------
 Iter    Rts Conv    Rts Left    Ttl Dev     Max Dev
 ---------------------------------------------------
   1         0           3      0.002827    0.001515
   2         0           3      0.000931    0.000526
   3         0           3      0.000286    0.000142
   4         0           3      0.000067    0.000047
   5         0           3      0.000014    0.000008
   6         2           1      0.000002    0.000002
   7         3           0      0.000000    0.000000    Roots Converged
 ---------------------------------------------------
  SETman timing summary (seconds)
  CPU time               112.88s
  System time              0.00s
  Wall time               35.74s
 
 --------------------------------------------------------------
 
                    Orbital Energies (a.u.)
 --------------------------------------------------------------
 
 Alpha MOs
 -- Occupied --
-14.0679  -9.9486  -9.9392  -9.9131  -9.9102  -9.9072  -9.9070  -9.9058
 -9.9019  -0.8974  -0.7560  -0.7020  -0.6689  -0.6368  -0.5648  -0.5394
 -0.5208  -0.4827  -0.4331  -0.4218  -0.3888  -0.3814  -0.3740  -0.3590
 -0.3475  -0.3117  -0.2965  -0.2936  -0.2436  -0.2061  -0.1762
 -- Virtual --
 -0.0540  -0.0210  -0.0120   0.0030   0.0080   0.0104   0.0232   0.0265
  0.0458   0.0486   0.0495   0.0545   0.0713   0.0751   0.0935   0.0949
  0.0955   0.1095   0.1176   0.1191   0.1342   0.1355   0.1430   0.1461
  0.1508   0.1577   0.1642   0.1652   0.1736   0.1789   0.1824   0.1838
  0.1920   0.1978   0.2100   0.2154   0.2182   0.2208   0.2301   0.2395
  0.2482   0.2531   0.2579   0.2600   0.2695   0.2721   0.2895   0.2953
  0.3155   0.3248   0.3334   0.3538   0.3597   0.4014   0.4462   0.5143
  0.5457   0.6306   0.6357   0.6537   0.6641   0.6743   0.6786   0.6805
  0.6907   0.7051   0.7084   0.7301   0.7315   0.7416   0.7572   0.8042
  0.8281   0.8417   0.8481   0.8861   0.8928   0.8987   0.9035   0.9322
  0.9410   0.9713   0.9852   0.9970   1.0421   1.0537   1.0660   1.1172
  1.1259   1.1483   1.1738   1.1793   1.1898   1.2514   1.2563   1.2858
  1.3020   1.3443   1.3658   1.3822   1.3873   1.4041   1.4254   1.4344
  1.4777   1.5256   1.5768   1.6770   1.7363   1.7892   1.8184   1.8244
  1.8470   1.8819   1.8947   1.9203   1.9311   1.9717   2.0295   2.0324
  2.0635   2.0702   2.1389   2.1480   2.1631   2.1715   2.2152   2.2581
  2.3075   2.3490   2.4331   2.4378   2.5394   2.5452   2.5604   2.5743
  2.6165   2.6877   2.7276   2.7447   2.8248   2.8758   2.9382   3.1167
  3.2755   4.0363   4.1378   4.1829   4.2125   4.2462   4.2995   4.3754
  4.4153   4.6655
 --------------------------------------------------------------
 
          Ground-State Mulliken Net Atomic Charges

     Atom                 Charge (a.u.)
  ----------------------------------------
      1 C                     0.070746
      2 C                    -0.492389
      3 C                    -0.239238
      4 C                    -1.337986
      5 C                     1.751470
      6 C                    -0.662804
      7 N                    -0.371560
      8 C                    -0.040524
      9 C                    -0.238020
     10 H                     0.413801
     11 H                     0.198380
     12 H                     0.200973
     13 H                     0.185169
     14 H                     0.183975
     15 H                     0.187534
     16 H                     0.190475
  ----------------------------------------
  Sum of atomic charges =     0.000000

 -----------------------------------------------------------------
                    Cartesian Multipole Moments
 -----------------------------------------------------------------
    Charge (ESU x 10^10)
                -0.0000
    Dipole Moment (Debye)
         X      -1.5638      Y       1.7100      Z       0.0006
       Tot       2.3172
    Quadrupole Moments (Debye-Ang)
        XX     -45.2548     XY      -3.9965     YY     -44.4280
        XZ      -0.0010     YZ       0.0017     ZZ     -59.4781
    Octopole Moments (Debye-Ang^2)
       XXX     -13.7335    XXY       9.1774    XYY      -9.0347
       YYY      11.8895    XXZ      -0.0004    XYZ      -0.0047
       YYZ       0.0028    XZZ      -1.6183    YZZ       2.4167
       ZZZ      -0.0045
    Hexadecapole Moments (Debye-Ang^3)
      XXXX    -847.1931   XXXY     -23.3845   XXYY    -203.7757
      XYYY     -17.4768   YYYY    -382.5199   XXXZ       0.0128
      XXYZ       0.0007   XYYZ      -0.0049   YYYZ       0.0002
      XXZZ    -198.7599   XYZZ      -2.6243   YYZZ     -97.7145
      XZZZ       0.0125   YZZZ      -0.0084   ZZZZ     -75.6324
 -----------------------------------------------------------------
 Calculating analytic gradient of the CIS energy
 CIS relaxed dipole moment
            1
    1  -0.8240359
    2   0.5166004
    3   0.0002211
	Magnitude:	 0.973 au	 2.472 Debye
 CIS 3 State Energy is -363.1978511787
 Gradient of the state energy (including CIS Excitation Energy)
            1           2           3           4           5           6
    1  -0.0092957   0.0139916  -0.0317777   0.0005155  -0.0047579   0.0312338
    2   0.0148442  -0.0439958  -0.0008380  -0.0137288   0.0301397   0.0095987
    3  -0.0000003  -0.0000060   0.0000037   0.0000209  -0.0000191  -0.0000081
            7           8           9          10          11          12
    1   0.0034898   0.0102208  -0.0078540  -0.0079193   0.0006053  -0.0035196
    2  -0.0179037  -0.0299944   0.0315038   0.0218685  -0.0036594   0.0033195
    3  -0.0000137   0.0000166  -0.0000072   0.0000077   0.0000024  -0.0000018
           13          14          15          16
    1   0.0032319  -0.0025596   0.0025148   0.0018802
    2  -0.0007696   0.0019160  -0.0002045  -0.0020962
    3   0.0000001   0.0000001   0.0000006   0.0000040
 Gradient time:  CPU 22.42 s  wall 7.58 s
 Geometry Optimization Parameters
   NAtoms,    NIC,     NZ,  NCons,   NDum,   NFix, NCnnct, MaxDiis
       16     116       0       0       0       0       0       0

 Cartesian Hessian Update
 Hessian updated using BFGS update


** GEOMETRY OPTIMIZATION IN DELOCALIZED INTERNAL COORDINATES **
   Searching for a Minimum

   Optimization Cycle:   4

                       Coordinates (Angstroms)
     ATOM                X               Y               Z
      1  C         2.2154827145   -0.7051327177   -0.0000243542
      2  C         2.1704153892    0.7005662419   -0.0000787273
      3  C         0.9063411161    1.4210334023    0.0001170346
      4  C        -0.2723444396    0.6715127225    0.0002581657
      5  C        -0.2573196855   -0.7653718505   -0.0000242929
      6  C         1.0135497201   -1.4500498640   -0.0001450135
      7  N        -1.5942130417    1.1022120487   -0.0000426420
      8  C        -1.6258261426   -1.2038333429    0.0001018764
      9  C        -2.4448371117    0.0053829262    0.0000372912
     10  H        -1.9107331130    2.0992816788    0.0004646967
     11  H        -1.9917430887   -2.2349428207    0.0000758772
     12  H        -3.5290898103    0.1524275088   -0.0001107796
     13  H         3.1108147769    1.2666757640   -0.0001457449
     14  H         0.8775452348    2.5185433812    0.0001050761
     15  H         3.1854165825   -1.2183279921    0.0000537799
     16  H         1.0496358504   -2.5474245939   -0.0001162623
   Point Group: c1    Number of degrees of freedom:    42


   Energy is   -363.197851179

 Hessian updated using BFGS update

 42 Hessian modes will be used to form the next step
  Hessian Eigenvalues:
     0.018594    0.019738    0.020011    0.020794    0.021683    0.022200
     0.022636    0.023004    0.023236    0.023608    0.023851    0.023984
     0.024127    0.159525    0.159996    0.160000    0.160000    0.160000
     0.160300    0.162155    0.220508    0.224463    0.230865    0.241810
     0.247222    0.348948    0.357157    0.357515    0.357870    0.362452
     0.364283    0.369244    0.390806    0.403147    0.427993    0.453818
     0.460270    0.466859    0.474931    0.496497    0.770158    1.229382

 Minimum search - taking simple RFO step
 Searching for Lamda that Minimizes Along All modes
 Value Taken    Lamda =  -0.00832932
 Step Taken.  Stepsize is  0.125328

                             Maximum     Tolerance    Cnvgd?
         Gradient           0.035179      0.000300      NO
         Displacement       0.058944      0.001200      NO
         Energy change      0.003918      0.000001      NO


 New Cartesian Coordinates Obtained by Inverse Iteration

 Displacement from previous Coordinates is:  0.208584
 ----------------------------------------------------------------
             Standard Nuclear Orientation (Angstroms)
    I     Atom           X                Y                Z
 ----------------------------------------------------------------
    1      C       2.1877865240    -0.6994981582     0.0000137211
    2      C       2.1612813533     0.7210458113    -0.0000702678
    3      C       0.9254223112     1.4325655217     0.0000554420
    4      C      -0.2548712111     0.6759718184     0.0001905193
    5      C      -0.2567734082    -0.7658420988    -0.0000063823
    6      C       0.9880013301    -1.4508267135    -0.0000906420
    7      N      -1.5794063912     1.0865337071    -0.0000451501
    8      C      -1.6206124455    -1.1906954036     0.0000130654
    9      C      -2.4210790242    -0.0131959968     0.0000993444
   10      H      -1.8981730831     2.0642864339     0.0005104493
   11      H      -1.9949169584    -2.2123856518    -0.0000729608
   12      H      -3.5011461257     0.1171221162     0.0000172308
   13      H       3.0974775369     1.2839265421    -0.0001325890
   14      H       0.9062952617     2.5252795912     0.0000281469
   15      H       3.1489421121    -1.2182615459     0.0000990078
   16      H       1.0148671693    -2.5434734806    -0.0000829538
 ----------------------------------------------------------------
 Molecular Point Group                 C1    NOp =  1
 Largest Abelian Subgroup              C1    NOp =  1
 Nuclear Repulsion Energy =         395.76602523 hartrees
 There are       31 alpha and       31 beta electrons
 Applying Cartesian multipole field
    Component          Value
    ---------          -----
     (2,0,0)        1.00000E-11
     (0,2,0)        2.00000E-11
     (0,0,2)       -3.00000E-11
 Nucleus-field energy     =     0.0000000120 hartrees
 Requested basis set is 6-31+G(d)
 There are 59 shells and 185 basis functions
 A cutoff of  1.0D-12 yielded   1656 shell pairs
 There are     17099 function pairs
 Smallest overlap matrix eigenvalue = 1.40E-06
 Guess MOs from SCF MO coefficient file

 -----------------------------------------------------------------------
  General SCF calculation program by
  Eric Jon Sundstrom, Paul Horn, Yuezhi Mao, Dmitri Zuev, Alec White,
  David Stuck, Shaama M.S., Shane Yost, Joonho Lee, David Small,
  Daniel Levine, Susi Lehtola, Hugh Burton, Evgeny Epifanovsky,
  Bang C. Huynh
 -----------------------------------------------------------------------
 Exchange:  PBE      Correlation:  PBE
 Using SG-1 standard quadrature grid
 using 4 threads for integral computing
 -------------------------------------------------------
 OpenMP Integral computing Module                
 Release: version 1.0, May 2013, Q-Chem Inc. Pittsburgh 
 -------------------------------------------------------
 A restricted SCF calculation will be
 performed using DIIS
 SCF converges when DIIS error is below 1.0e-08
 ---------------------------------------
  Cycle       Energy         DIIS error
 ---------------------------------------
    1    -363.3677429501      6.85e-04  
    2    -363.3699241951      2.39e-04  
    3    -363.3696501232      3.34e-04  
    4    -363.3701238906      9.12e-05  
    5    -363.3701645968      3.33e-05  
    6    -363.3701694752      9.44e-06  
    7    -363.3701698367      2.37e-06  
    8    -363.3701698596      8.05e-07  
    9    -363.3701698627      2.97e-07  
   10    -363.3701698630      6.46e-08  
   11    -363.3701698631      2.92e-08  
   12    -363.3701698631      7.18e-09  Convergence criterion met
 ---------------------------------------
 SCF time:   CPU 24.50s  wall 8.00s 
 SCF   energy in the final basis set =     -363.3701698631
 Total energy in the final basis set =     -363.3701698631
 
 Direct TDDFT/TDA calculation will be performed
 Exchange:  PBE      Correlation:  PBE
 Using SG-1 standard quadrature grid
 Singlet excitation energies requested
 CIS energy converged when residual is below 10e- 6
 ---------------------------------------------------
 Iter    Rts Conv    Rts Left    Ttl Dev     Max Dev
 ---------------------------------------------------
   1         0           3      0.003995    0.001998
   2         0           3      0.002837    0.001576
   3         0           3      0.002393    0.001363
   4         0           3      0.001668    0.001321
   5         1           2      0.001154    0.001045
   6         1           2      0.000487    0.000453
   7         1           2      0.000200    0.000189
   8         1           2      0.000115    0.000113
   9         2           1      0.000053    0.000052
  10         2           1      0.000011    0.000010
  11         2           1      0.000003    0.000002
  12         3           0      0.000001    0.000000    Roots Converged
 ---------------------------------------------------
 
 ---------------------------------------------------
         TDDFT/TDA Excitation Energies              
 ---------------------------------------------------

 Excited state   1: excitation energy (eV) =    4.3458
 Total energy for state  1:                  -363.21046355 au
    Multiplicity: Singlet
    Trans. Mom.:  0.6324 X  -0.5988 Y  -0.0003 Z
    Strength   :     0.0807568125
    D(   29) --> V(    1) amplitude =  0.2441
    D(   31) --> V(    1) amplitude =  0.8853

 Excited state   2: excitation energy (eV) =    4.3870
 Total energy for state  2:                  -363.20894927 au
    Multiplicity: Singlet
    Trans. Mom.:  0.0011 X  -0.0011 Y   0.1179 Z
    Strength   :     0.0014933018
    D(   31) --> V(    2) amplitude =  0.9996

 Excited state   3: excitation energy (eV) =    4.5371
 Total energy for state  3:                  -363.20343579 au
    Multiplicity: Singlet
    Trans. Mom.: -0.2176 X  -0.1562 Y   0.0001 Z
    Strength   :     0.0079762398
    D(   30) --> V(    1) amplitude =  0.7352
    D(   31) --> V(    3) amplitude =  0.6632
 
 ---------------------------------------------------
 Calculating Relaxed Density
 ---------------------------------------------------
 Iter    Rts Conv    Rts Left    Ttl Dev     Max Dev
 ---------------------------------------------------
   1         0           3      0.002676    0.001444
   2         0           3      0.000886    0.000485
   3         0           3      0.000245    0.000118
   4         0           3      0.000087    0.000042
   5         1           2      0.000011    0.000006
   6         1           2      0.000003    0.000002
   7         3           0      0.000000    0.000000    Roots Converged
 ---------------------------------------------------
  SETman timing summary (seconds)
  CPU time               115.42s
  System time              0.00s
  Wall time               39.17s
 
 --------------------------------------------------------------
 
                    Orbital Energies (a.u.)
 --------------------------------------------------------------
 
 Alpha MOs
 -- Occupied --
-14.0642  -9.9429  -9.9383  -9.9106  -9.9061  -9.9052  -9.9044  -9.9010
 -9.8998  -0.8997  -0.7574  -0.7071  -0.6657  -0.6432  -0.5653  -0.5399
 -0.5221  -0.4847  -0.4350  -0.4204  -0.3896  -0.3819  -0.3752  -0.3607
 -0.3493  -0.3117  -0.2960  -0.2938  -0.2470  -0.2019  -0.1796
 -- Virtual --
 -0.0499  -0.0186  -0.0130   0.0036   0.0105   0.0130   0.0242   0.0270
  0.0458   0.0481   0.0516   0.0550   0.0712   0.0753   0.0942   0.0960
  0.0970   0.1103   0.1186   0.1211   0.1362   0.1374   0.1454   0.1462
  0.1527   0.1593   0.1657   0.1660   0.1768   0.1789   0.1827   0.1842
  0.1960   0.2008   0.2114   0.2181   0.2189   0.2220   0.2323   0.2398
  0.2515   0.2550   0.2588   0.2641   0.2672   0.2759   0.2904   0.3001
  0.3168   0.3276   0.3363   0.3586   0.3699   0.4040   0.4570   0.5173
  0.5500   0.6310   0.6369   0.6551   0.6667   0.6771   0.6779   0.6829
  0.6918   0.7044   0.7082   0.7305   0.7366   0.7439   0.7617   0.8047
  0.8337   0.8438   0.8524   0.8853   0.8917   0.9009   0.9045   0.9329
  0.9425   0.9774   0.9943   1.0000   1.0459   1.0599   1.0636   1.1186
  1.1281   1.1498   1.1747   1.1781   1.1918   1.2573   1.2578   1.2828
  1.3077   1.3456   1.3600   1.3828   1.3897   1.4061   1.4272   1.4311
  1.4789   1.5213   1.5779   1.6996   1.7499   1.8021   1.8191   1.8337
  1.8490   1.8995   1.9019   1.9268   1.9505   1.9814   2.0395   2.0462
  2.0778   2.0846   2.1563   2.1585   2.1665   2.1762   2.2204   2.2712
  2.3155   2.3595   2.4426   2.4481   2.5468   2.5482   2.5666   2.5849
  2.6258   2.6990   2.7350   2.7500   2.8520   2.8797   2.9703   3.1283
  3.2918   4.0415   4.1448   4.1934   4.2225   4.2537   4.3015   4.3782
  4.4204   4.6723
 --------------------------------------------------------------
 
          Ground-State Mulliken Net Atomic Charges

     Atom                 Charge (a.u.)
  ----------------------------------------
      1 C                     0.052198
      2 C                    -0.492050
      3 C                    -0.198758
      4 C                    -1.239675
      5 C                     1.658496
      6 C                    -0.738508
      7 N                    -0.393446
      8 C                     0.044818
      9 C                    -0.249965
     10 H                     0.413667
     11 H                     0.197026
     12 H                     0.199961
     13 H                     0.185583
     14 H                     0.185172
     15 H                     0.184806
     16 H                     0.190674
  ----------------------------------------
  Sum of atomic charges =     0.000000

 -----------------------------------------------------------------
                    Cartesian Multipole Moments
 -----------------------------------------------------------------
    Charge (ESU x 10^10)
                 0.0000
    Dipole Moment (Debye)
         X      -1.5894      Y       1.6637      Z       0.0007
       Tot       2.3009
    Quadrupole Moments (Debye-Ang)
        XX     -45.4161     XY      -3.5185     YY     -44.4362
        XZ      -0.0014     YZ       0.0021     ZZ     -59.2109
    Octopole Moments (Debye-Ang^2)
       XXX     -14.8425    XXY       8.9788    XYY      -8.4936
       YYY      11.2239    XXZ       0.0014    XYZ      -0.0056
       YYZ       0.0024    XZZ      -1.9958    YZZ       2.2483
       ZZZ      -0.0038
    Hexadecapole Moments (Debye-Ang^3)
      XXXX    -837.2658   XXXY     -23.0575   XXYY    -201.6638
      XYYY     -19.3520   YYYY    -382.2495   XXXZ       0.0057
      XXYZ       0.0037   XYYZ      -0.0050   YYYZ       0.0042
      XXZZ    -195.1469   XYZZ      -3.7860   YYZZ     -96.9129
      XZZZ       0.0100   YZZZ      -0.0055   ZZZZ     -74.8435
 -----------------------------------------------------------------
 Calculating analytic gradient of the CIS energy
 CIS relaxed dipole moment
            1
    1  -0.8233914
    2   0.5084050
    3   0.0001838
	Magnitude:	 0.968 au	 2.460 Debye
 CIS 3 State Energy is -363.2034357925
 Gradient of the state energy (including CIS Excitation Energy)
            1           2           3           4           5           6
    1  -0.0106453   0.0039133  -0.0139705   0.0035945  -0.0015809   0.0172196
    2   0.0076756  -0.0221784  -0.0040943  -0.0095830   0.0191112   0.0095710
    3   0.0000011  -0.0000048  -0.0000007   0.0000162  -0.0000063  -0.0000043
            7           8           9          10          11          12
    1   0.0002094   0.0042392   0.0016715  -0.0034626   0.0007110   0.0006217
    2  -0.0151249  -0.0138243   0.0172469   0.0090487   0.0008994   0.0011686
    3  -0.0000137  -0.0000000   0.0000049   0.0000034   0.0000002  -0.0000003
           13          14          15          16
    1  -0.0008738  -0.0005202  -0.0011045  -0.0000223
    2  -0.0003734  -0.0013023   0.0007295   0.0010298
    3   0.0000006   0.0000007   0.0000005   0.0000025
 Gradient time:  CPU 23.11 s  wall 7.82 s
 Geometry Optimization Parameters
   NAtoms,    NIC,     NZ,  NCons,   NDum,   NFix, NCnnct, MaxDiis
       16     116       0       0       0       0       0       0

 Cartesian Hessian Update
 Hessian updated using BFGS update


** GEOMETRY OPTIMIZATION IN DELOCALIZED INTERNAL COORDINATES **
   Searching for a Minimum

   Optimization Cycle:   5

                       Coordinates (Angstroms)
     ATOM                X               Y               Z
      1  C         2.1877865240   -0.6994981582    0.0000137211
      2  C         2.1612813533    0.7210458113   -0.0000702678
      3  C         0.9254223112    1.4325655217    0.0000554420
      4  C        -0.2548712111    0.6759718184    0.0001905193
      5  C        -0.2567734082   -0.7658420988   -0.0000063823
      6  C         0.9880013301   -1.4508267135   -0.0000906420
      7  N        -1.5794063912    1.0865337071   -0.0000451501
      8  C        -1.6206124455   -1.1906954036    0.0000130654
      9  C        -2.4210790242   -0.0131959968    0.0000993444
     10  H        -1.8981730831    2.0642864339    0.0005104493
     11  H        -1.9949169584   -2.2123856518   -0.0000729608
     12  H        -3.5011461257    0.1171221162    0.0000172308
     13  H         3.0974775369    1.2839265421   -0.0001325890
     14  H         0.9062952617    2.5252795912    0.0000281469
     15  H         3.1489421121   -1.2182615459    0.0000990078
     16  H         1.0148671693   -2.5434734806   -0.0000829538
   Point Group: c1    Number of degrees of freedom:    42


   Energy is   -363.203435793

 Hessian updated using BFGS update

 41 Hessian modes will be used to form the next step
  Hessian Eigenvalues:
     0.018594    0.019738    0.020011    0.020794    0.021683    0.022200
     0.022636    0.023004    0.023236    0.023608    0.023851    0.023984
     0.024127    0.159464    0.159832    0.160000    0.160003    0.160780
     0.163056    0.220982    0.223337    0.229886    0.244082    0.247461
     0.335450    0.357159    0.357484    0.357936    0.360176    0.364272
     0.369360    0.382687    0.406100    0.428136    0.452387    0.462399
     0.474154    0.475174    0.498363    0.593540    1.122312

 Minimum search - taking simple RFO step
 Searching for Lamda that Minimizes Along All modes
 Value Taken    Lamda =  -0.00307372
 Step Taken.  Stepsize is  0.085230

                             Maximum     Tolerance    Cnvgd?
         Gradient           0.016434      0.000300      NO
         Displacement       0.041867      0.001200      NO
         Energy change     -0.005585      0.000001      NO


 New Cartesian Coordinates Obtained by Inverse Iteration

 Displacement from previous Coordinates is:  0.108162
 ----------------------------------------------------------------
             Standard Nuclear Orientation (Angstroms)
    I     Atom           X                Y                Z
 ----------------------------------------------------------------
    1      C       2.1834596936    -0.7017762563     0.0000132055
    2      C       2.1618583797     0.7377896180    -0.0000583239
    3      C       0.9387964678     1.4480194633     0.0000469170
    4      C      -0.2496767569     0.6839897842     0.0001720742
    5      C      -0.2572214285    -0.7742260672     0.0000106095
    6      C       0.9756489032    -1.4655872739    -0.0000828537
    7      N      -1.5794953854     1.0854784783     0.0000004028
    8      C      -1.6235132331    -1.1803692518     0.0000169711
    9      C      -2.4160604106    -0.0233876814     0.0000907914
[...]
             Standard Nuclear Orientation (Angstroms)
    I     Atom           X                Y                Z
 ----------------------------------------------------------------
    1      C       2.1875566987    -0.7019986430     0.0000492065
    2      C       2.1644589813     0.7383348168    -0.0000110797
    3      C       0.9369757941     1.4498314186    -0.0000742617
    4      C      -0.2511246237     0.6852068138     0.0000716457
    5      C      -0.2586027256    -0.7778692577    -0.0000310501
    6      C       0.9765038780    -1.4687898737    -0.0000277066
    7      N      -1.5805375480     1.0866402189     0.0001348335
    8      C      -1.6249553798    -1.1828415452    -0.0000821569
    9      C      -2.4213897786    -0.0212102198     0.0000073566
   10      H      -1.9023374298     2.0574512850     0.0007199861
   11      H      -2.0058769343    -2.2046604506    -0.0002237658
   12      H      -3.5038032561     0.1006290544     0.0001475695
   13      H       3.1087752956     1.2899370672    -0.0001869066
   14      H       0.9155015721     2.5441592144    -0.0001742458
   15      H       3.1511624616    -1.2198710607     0.0003355483
   16      H       1.0107879460    -2.5623963458    -0.0001289918
 ----------------------------------------------------------------
 Molecular Point Group                 C1    NOp =  1
 Largest Abelian Subgroup              C1    NOp =  1
 Nuclear Repulsion Energy =         394.56275937 hartrees
 There are       31 alpha and       31 beta electrons
 Applying Cartesian multipole field
    Component          Value
    ---------          -----
     (2,0,0)        1.00000E-11
     (0,2,0)        2.00000E-11
     (0,0,2)       -3.00000E-11
 Nucleus-field energy     =     0.0000000121 hartrees
 Requested basis set is 6-31+G(d)
 There are 59 shells and 185 basis functions
 A cutoff of  1.0D-12 yielded   1656 shell pairs
 There are     17099 function pairs
 Smallest overlap matrix eigenvalue = 1.49E-06
 Guess MOs from SCF MO coefficient file

 -----------------------------------------------------------------------
  General SCF calculation program by
  Eric Jon Sundstrom, Paul Horn, Yuezhi Mao, Dmitri Zuev, Alec White,
  David Stuck, Shaama M.S., Shane Yost, Joonho Lee, David Small,
  Daniel Levine, Susi Lehtola, Hugh Burton, Evgeny Epifanovsky,
  Bang C. Huynh
 -----------------------------------------------------------------------
 Exchange:  PBE      Correlation:  PBE
 Using SG-1 standard quadrature grid
 using 4 threads for integral computing
 -------------------------------------------------------
 OpenMP Integral computing Module                
 Release: version 1.0, May 2013, Q-Chem Inc. Pittsburgh 
 -------------------------------------------------------
 A restricted SCF calculation will be
 performed using DIIS
 SCF converges when DIIS error is below 1.0e-08
 ---------------------------------------
  Cycle       Energy         DIIS error
 ---------------------------------------
    1    -363.3694552470      3.60e-06  
    2    -363.3694553218      8.89e-07  
    3    -363.3694553132      1.62e-06  
    4    -363.3694553245      4.25e-07  
    5    -363.3694553253      1.43e-07  
    6    -363.3694553254      3.23e-08  
    7    -363.3694553254      9.82e-09  Convergence criterion met
 ---------------------------------------
 SCF time:   CPU 12.97s  wall 13.00s 
 SCF   energy in the final basis set =     -363.3694553254
 Total energy in the final basis set =     -363.3694553254
 
 Direct TDDFT/TDA calculation will be performed
 Exchange:  PBE      Correlation:  PBE
 Using SG-1 standard quadrature grid
 Singlet excitation energies requested
 CIS energy converged when residual is below 10e- 6
 ---------------------------------------------------
 Iter    Rts Conv    Rts Left    Ttl Dev     Max Dev
 ---------------------------------------------------
   1         0           3      0.003977    0.001983
   2         0           3      0.003206    0.001648
   3         0           3      0.002409    0.001443
   4         0           3      0.001265    0.001003
   5         0           3      0.000744    0.000545
   6         1           2      0.000216    0.000155
   7         1           2      0.000046    0.000033
   8         1           2      0.000007    0.000005
   9         3           0      0.000001    0.000001    Roots Converged
 ---------------------------------------------------
 
 ---------------------------------------------------
         TDDFT/TDA Excitation Energies              
 ---------------------------------------------------

 Excited state   1: excitation energy (eV) =    4.3812
 Total energy for state  1:                  -363.20844840 au
    Multiplicity: Singlet
    Trans. Mom.:  0.5460 X  -0.5932 Y  -0.0000 Z
    Strength   :     0.0697658833
    D(   29) --> V(    1) amplitude =  0.2401
    D(   31) --> V(    1) amplitude =  0.8871

 Excited state   2: excitation energy (eV) =    4.4606
 Total energy for state  2:                  -363.20552975 au
    Multiplicity: Singlet
    Trans. Mom.:  0.0008 X   0.0015 Y  -0.1130 Z
    Strength   :     0.0013962931
    D(   31) --> V(    2) amplitude =  0.9995

 Excited state   3: excitation energy (eV) =    4.4659
 Total energy for state  3:                  -363.20533789 au
    Multiplicity: Singlet
    Trans. Mom.:  0.2581 X   0.1750 Y   0.0006 Z
    Strength   :     0.0106382600
    D(   30) --> V(    1) amplitude =  0.7443
    D(   31) --> V(    3) amplitude =  0.6533
 
 ---------------------------------------------------
 Calculating Relaxed Density
 ---------------------------------------------------
 Iter    Rts Conv    Rts Left    Ttl Dev     Max Dev
 ---------------------------------------------------
   1         0           3      0.002618    0.001416
   2         0           3      0.000853    0.000459
   3         0           3      0.000216    0.000097
   4         0           3      0.000070    0.000033
   5         0           3      0.000011    0.000005
   6         3           0      0.000000    0.000000    Roots Converged
 ---------------------------------------------------
  SETman timing summary (seconds)
  CPU time                99.38s
  System time              0.00s
  Wall time               95.85s
 
 --------------------------------------------------------------
 
                    Orbital Energies (a.u.)
 --------------------------------------------------------------
 
 Alpha MOs
 -- Occupied --
-14.0639  -9.9420  -9.9414  -9.9121  -9.9078  -9.9073  -9.9068  -9.9043
 -9.8988  -0.8979  -0.7539  -0.7086  -0.6614  -0.6452  -0.5642  -0.5395
 -0.5213  -0.4837  -0.4365  -0.4188  -0.3886  -0.3827  -0.3737  -0.3599
 -0.3496  -0.3129  -0.2950  -0.2917  -0.2489  -0.1986  -0.1817
 -- Virtual --
 -0.0496  -0.0180  -0.0168   0.0037   0.0102   0.0147   0.0240   0.0268
  0.0459   0.0481   0.0517   0.0543   0.0703   0.0756   0.0942   0.0956
  0.0971   0.1095   0.1187   0.1211   0.1344   0.1372   0.1434   0.1459
  0.1513   0.1593   0.1648   0.1652   0.1765   0.1772   0.1825   0.1838
  0.1962   0.1999   0.2106   0.2176   0.2186   0.2202   0.2322   0.2395
  0.2512   0.2547   0.2574   0.2613   0.2643   0.2762   0.2889   0.2991
  0.3117   0.3263   0.3342   0.3566   0.3722   0.4005   0.4585   0.5071
  0.5406   0.6309   0.6367   0.6551   0.6638   0.6746   0.6774   0.6842
  0.6925   0.7014   0.7075   0.7295   0.7366   0.7438   0.7615   0.8033
  0.8351   0.8427   0.8520   0.8841   0.8901   0.9011   0.9040   0.9322
  0.9399   0.9795   0.9960   1.0006   1.0467   1.0580   1.0613   1.1171
  1.1275   1.1480   1.1738   1.1791   1.1898   1.2560   1.2584   1.2824
  1.3060   1.3457   1.3498   1.3768   1.3908   1.4088   1.4265   1.4282
  1.4743   1.5166   1.5745   1.7019   1.7441   1.8011   1.8150   1.8282
  1.8339   1.8956   1.9017   1.9261   1.9482   1.9657   2.0313   2.0409
  2.0682   2.0882   2.1445   2.1549   2.1686   2.1702   2.2120   2.2673
  2.3160   2.3586   2.4307   2.4445   2.5324   2.5418   2.5618   2.5803
  2.6187   2.6921   2.7249   2.7426   2.8611   2.8716   2.9718   3.1206
  3.2672   4.0383   4.1343   4.1965   4.2213   4.2545   4.3001   4.3752
  4.4187   4.6639
 --------------------------------------------------------------
 
          Ground-State Mulliken Net Atomic Charges

     Atom                 Charge (a.u.)
  ----------------------------------------
      1 C                     0.030205
      2 C                    -0.478829
      3 C                    -0.217634
      4 C                    -1.148707
      5 C                     1.568694
      6 C                    -0.729923
      7 N                    -0.398508
      8 C                     0.062310
      9 C                    -0.249231
     10 H                     0.414078
     11 H                     0.196933
     12 H                     0.200584
     13 H                     0.186620
     14 H                     0.186569
     15 H                     0.184515
     16 H                     0.192322
  ----------------------------------------
  Sum of atomic charges =     0.000000

 -----------------------------------------------------------------
                    Cartesian Multipole Moments
 -----------------------------------------------------------------
    Charge (ESU x 10^10)
                 0.0000
    Dipole Moment (Debye)
         X      -1.6245      Y       1.6352      Z       0.0009
       Tot       2.3050
    Quadrupole Moments (Debye-Ang)
        XX     -45.3728     XY      -3.3595     YY     -44.3898
        XZ      -0.0021     YZ       0.0022     ZZ     -59.3112
    Octopole Moments (Debye-Ang^2)
       XXX     -15.4089    XXY       8.9016    XYY      -8.3135
       YYY      10.9442    XXZ       0.0061    XYZ      -0.0080
       YYZ       0.0027    XZZ      -2.2939    YZZ       2.1724
       ZZZ      -0.0012
    Hexadecapole Moments (Debye-Ang^3)
      XXXX    -837.9205   XXXY     -23.0030   XXYY    -202.7596
      XYYY     -20.6285   YYYY    -386.5669   XXXZ      -0.0055
      XXYZ       0.0036   XYYZ      -0.0090   YYYZ       0.0075
      XXZZ    -195.7713   XYZZ      -4.0561   YYZZ     -97.9146
      XZZZ       0.0035   YZZZ      -0.0053   ZZZZ     -75.0777
 -----------------------------------------------------------------
 Calculating analytic gradient of the CIS energy
 CIS relaxed dipole moment
            1
    1  -0.8066709
    2   0.4992645
    3   0.0005475
	Magnitude:	 0.949 au	 2.411 Debye
 CIS 3 State Energy is -363.2053378892
 Gradient of the state energy (including CIS Excitation Energy)
            1           2           3           4           5           6
    1  -0.0016732  -0.0003669  -0.0022771   0.0008350   0.0000786   0.0022583
    2   0.0020738  -0.0045343  -0.0013911  -0.0014018   0.0026421   0.0017167
    3  -0.0000310   0.0000397  -0.0000171  -0.0000593   0.0000274   0.0000356
            7           8           9          10          11          12
    1  -0.0021458   0.0017714   0.0042437  -0.0019791  -0.0000620  -0.0004637
    2  -0.0089621  -0.0010605   0.0060541   0.0046702  -0.0001634   0.0005148
    3   0.0000003  -0.0000053  -0.0000074   0.0000287  -0.0000011  -0.0000005
           13          14          15          16
    1   0.0000018  -0.0003051  -0.0000126   0.0000967
    2  -0.0000105  -0.0001345  -0.0000059  -0.0000075
    3   0.0000016   0.0000001  -0.0000065  -0.0000052
 Gradient time:  CPU 21.09 s  wall 21.28 s
 Geometry Optimization Parameters
   NAtoms,    NIC,     NZ,  NCons,   NDum,   NFix, NCnnct, MaxDiis
       16     116       0       0       0       0       0       0

 Cartesian Hessian Update
 Hessian updated using BFGS update


** GEOMETRY OPTIMIZATION IN DELOCALIZED INTERNAL COORDINATES **
   Searching for a Minimum

   Optimization Cycle:  18

                       Coordinates (Angstroms)
     ATOM                X               Y               Z
      1  C         2.1875566987   -0.7019986430    0.0000492065
      2  C         2.1644589813    0.7383348168   -0.0000110797
      3  C         0.9369757941    1.4498314186   -0.0000742617
      4  C        -0.2511246237    0.6852068138    0.0000716457
      5  C        -0.2586027256   -0.7778692577   -0.0000310501
      6  C         0.9765038780   -1.4687898737   -0.0000277066
      7  N        -1.5805375480    1.0866402189    0.0001348335
      8  C        -1.6249553798   -1.1828415452   -0.0000821569
      9  C        -2.4213897786   -0.0212102198    0.0000073566
     10  H        -1.9023374298    2.0574512850    0.0007199861
     11  H        -2.0058769343   -2.2046604506   -0.0002237658
     12  H        -3.5038032561    0.1006290544    0.0001475695
     13  H         3.1087752956    1.2899370672   -0.0001869066
     14  H         0.9155015721    2.5441592144   -0.0001742458
     15  H         3.1511624616   -1.2198710607    0.0003355483
     16  H         1.0107879460   -2.5623963458   -0.0001289918
   Point Group: c1    Number of degrees of freedom:    42


   Energy is   -363.205337889

 Hessian updated using BFGS update

 42 Hessian modes will be used to form the next step
  Hessian Eigenvalues:
     0.018947    0.019689    0.020049    0.021293    0.021982    0.022223
     0.022775    0.023054    0.023523    0.023779    0.023968    0.024092
     0.158848    0.159667    0.159971    0.160004    0.160105    0.160759
     0.163759    0.186125    0.220386    0.228209    0.233502    0.247232
     0.287953    0.357155    0.357388    0.358025    0.359324    0.364234
     0.367562    0.374646    0.398150    0.423506    0.432277    0.452283
     0.459137    0.476551    0.492745    0.594053    0.689505    0.890047

 Minimum search - taking simple RFO step
 Searching for Lamda that Minimizes Along All modes
 Value Taken    Lamda =  -0.00024813
 Step Taken.  Stepsize is  0.037236

                             Maximum     Tolerance    Cnvgd?
         Gradient           0.004661      0.000300      NO
         Displacement       0.015325      0.001200      NO
         Energy change     -0.000005      0.000001      NO


 New Cartesian Coordinates Obtained by Inverse Iteration

 Displacement from previous Coordinates is:  0.043881
 ----------------------------------------------------------------
             Standard Nuclear Orientation (Angstroms)
    I     Atom           X                Y                Z
 ----------------------------------------------------------------
    1      C       2.1892318732    -0.7034348099    -0.0018382588
    2      C       2.1671249569     0.7416474195     0.0013859529
    3      C       0.9404870390     1.4541888122     0.0026026020
    4      C      -0.2513021320     0.6872548536    -0.0014817150
    5      C      -0.2601219444    -0.7789859610     0.0000072470
    6      C       0.9752979504    -1.4714870778    -0.0003038772
    7      N      -1.5812991723     1.0900451601    -0.0032181808
    8      C      -1.6274966210    -1.1834449716     0.0035023437
    9      C      -2.4255916880    -0.0239416347     0.0013932905
   10      H      -1.9013887013     2.0553224681    -0.0060152504
   11      H      -2.0073658038    -2.2055139164     0.0045106471
   12      H      -3.5078379145     0.0954877139    -0.0017823986
   13      H       3.1118016958     1.2928854429     0.0061930398
   14      H       0.9206674011     2.5487810339     0.0040135811
   15      H       3.1529885522    -1.2210760468    -0.0102399954
   16      H       1.0078994599    -2.5651759934     0.0017969532
 ----------------------------------------------------------------
 Molecular Point Group                 C1    NOp =  1
 Largest Abelian Subgroup              C1    NOp =  1
 Nuclear Repulsion Energy =         394.00691875 hartrees
 There are       31 alpha and       31 beta electrons
 Applying Cartesian multipole field
    Component          Value
    ---------          -----
     (2,0,0)        1.00000E-11
     (0,2,0)        2.00000E-11
     (0,0,2)       -3.00000E-11
 Nucleus-field energy     =     0.0000000121 hartrees
 Requested basis set is 6-31+G(d)
 There are 59 shells and 185 basis functions
 A cutoff of  1.0D-12 yielded   1656 shell pairs
 There are     17099 function pairs
 Smallest overlap matrix eigenvalue = 1.53E-06
 Guess MOs from SCF MO coefficient file

 -----------------------------------------------------------------------
  General SCF calculation program by
  Eric Jon Sundstrom, Paul Horn, Yuezhi Mao, Dmitri Zuev, Alec White,
  David Stuck, Shaama M.S., Shane Yost, Joonho Lee, David Small,
  Daniel Levine, Susi Lehtola, Hugh Burton, Evgeny Epifanovsky,
  Bang C. Huynh
 -----------------------------------------------------------------------
 Exchange:  PBE      Correlation:  PBE
 Using SG-1 standard quadrature grid
 using 4 threads for integral computing
 -------------------------------------------------------
 OpenMP Integral computing Module                
 Release: version 1.0, May 2013, Q-Chem Inc. Pittsburgh 
 -------------------------------------------------------
 A restricted SCF calculation will be
 performed using DIIS
 SCF converges when DIIS error is below 1.0e-08
 ---------------------------------------
  Cycle       Energy         DIIS error
 ---------------------------------------
    1    -363.3687169615      1.36e-04  
    2    -363.3688170157      4.12e-05  
    3    -363.3688060643      6.34e-05  
    4    -363.3688228364      1.76e-05  
    5    -363.3688241124      6.78e-06  
    6    -363.3688243325      1.50e-06  
    7    -363.3688243423      5.07e-07  
    8    -363.3688243435      1.94e-07  
    9    -363.3688243437      4.22e-08  
   10    -363.3688243437      1.54e-08  
   11    -363.3688243437      5.08e-09  Convergence criterion met
 ---------------------------------------
 SCF time:   CPU 20.46s  wall 20.00s 
 SCF   energy in the final basis set =     -363.3688243437
 Total energy in the final basis set =     -363.3688243437
 
 Direct TDDFT/TDA calculation will be performed
 Exchange:  PBE      Correlation:  PBE
 Using SG-1 standard quadrature grid
 Singlet excitation energies requested
 CIS energy converged when residual is below 10e- 6
 ---------------------------------------------------
 Iter    Rts Conv    Rts Left    Ttl Dev     Max Dev
 ---------------------------------------------------
   1         0           3      0.005096    0.002124
   2         0           3      0.003727    0.001851
   3         0           3      0.002811    0.001763
   4         0           3      0.001201    0.000784
   5         0           3      0.000306    0.000147
   6         0           3      0.000095    0.000071
   7         1           2      0.001453    0.001450
   8         2           1      0.001398    0.001397
   9         2           1      0.001032    0.001031
  10         2           1      0.001236    0.001235
  11         2           1      0.001235    0.001234
  12         2           1      0.001273    0.001273
  13         2           1      0.001224    0.001224
  14         2           1      0.000925    0.000924
  15         2           1      0.000855    0.000854
  16         2           1      0.000772    0.000771
  17         2           1      0.000912    0.000911
  18         2           1      0.000930    0.000929
  19         2           1      0.000928    0.000927
  20         2           1      0.000985    0.000984
  21         2           1      0.001004    0.001003
  22         2           1      0.000990    0.000989
  23         2           1      0.000996    0.000995
  24         1           2      0.000972    0.000971
  25         0           3      0.000870    0.000859
  26         0           3      0.000832    0.000711
  27         0           3      0.002224    0.002139
  28         0           3      0.000248    0.000206
  29         0           3      0.000058    0.000036
  30         1           2      0.000040    0.000035
  31         1           2      0.000039    0.000035

 Q-Chem fatal error occurred in module 0, line   98:

 MaxIt Reached in CIS/RPA iterations

