
Running Job 1 of 1 indole-tddft-M06-2.in
qchem indole-tddft-M06-2.in_53925.0 /scratch/scaparas/job_3318806/qchem53925/ 0
/cm/shared/apps/spack/cpu/opt/spack/linux-centos8-zen2/gcc-10.2.0/qchem-5.3-5qddma6gy34jvefiv7mbcb7qm253n45r/exe/qcprog.exe_s indole-tddft-M06-2.in_53925.0 /scratch/scaparas/job_3318806/qchem53925/
                  Welcome to Q-Chem
     A Quantum Leap Into The Future Of Chemistry


 Q-Chem 5.3, Q-Chem, Inc., Pleasanton, CA (2020)

 License issued to: University of California, San Diego (site)

 Yihan Shao,  Zhengting Gan,  E. Epifanovsky,  A. T. B. Gilbert,  M. Wormit,  
 J. Kussmann,  A. W. Lange,  A. Behn,  Jia Deng,  Xintian Feng,  D. Ghosh,  
 M. Goldey,  P. R. Horn,  L. D. Jacobson,  I. Kaliman,  T. Kus,  A. Landau,  
 Jie Liu,  E. I. Proynov,  R. M. Richard,  R. P. Steele,  E. J. Sundstrom,  
 H. L. Woodcock III,  P. M. Zimmerman,  D. Zuev,  B. Alam,  B. Albrecht,  
 A. Aldossary,  E. Alguire,  S. A. Baeppler,  D. Barton,  Z. Benda,  
 Y. A. Bernard,  E. J. Berquist,  K. B. Bravaya,  H. Burton,  K. Carter-Fenk,  
 D. Casanova,  Chun-Min Chang,  Yunqing Chen,  A. Chien,  K. D. Closser,  
 M. P. Coons,  S. Coriani,  S. Dasgupta,  A. L. Dempwolff,  M. Diedenhofen,  
 Hainam Do,  R. G. Edgar,  Po-Tung Fang,  S. Faraji,  S. Fatehi,  
 Qingguo Feng,  J. Fosso-Tande,  J. Gayvert,  Qinghui Ge,  A. Ghysels,  
 G. Gidofalvi,  J. Gomes,  J. Gonthier,  S. Gulania,  A. Gunina,  D. Hait,  
 M. W. D. Hanson-Heine,  S. Hammes-Schiffer,  P. H. P. Harbach,  
 A. W. Hauser,  M. F. Herbst,  J. E. Herr,  E. G. Hohenstein,  Z. C. Holden,  
 S. Houck,  Kerwin Hui,  B. C. Huynh,  M. Ivanov,  T.-C. Jagau,  Hyunjun Ji,  
 B. Kaduk,  K. Khistyaev,  Jaehoon Kim,  P. Klunzinger,  K. Koh,  
 D. Kosenkov,  L. Koulias,  T. Kowalczyk,  C. M. Krauter,  A. Kunitsa,  
 Ka Un Lao,  A. Laurent,  K. V. Lawler,  Joonho Lee,  D. Lefrancois,  
 S. Lehtola,  D. S. Levine,  Yi-Pei Li,  You-Sheng Lin,  Fenglai Liu,  
 Kuan-Yu Liu,  E. Livshits,  M. Loipersberger,  A. Luenser,  P. Manohar,  
 E. Mansoor,  S. F. Manzer,  Shan-Ping Mao,  Yuezhi Mao,  N. Mardirossian,  
 A. V. Marenich,  T. Markovich,  L. A. Martinez-Martinez,  S. A. Maurer,  
 N. J. Mayhall,  S. C. McKenzie,  J.-M. Mewes,  P. Morgante,  A. F. Morrison,  
 J. W. Mullinax,  K. Nanda,  T. S. Nguyen-Beck,  R. Olivares-Amaya,  
 K. J. Oosterbaan,  J. A. Parkhill,  S. K. Paul,  F. Pavosevic,  Zheng Pei,  
 T. M. Perrine,  F. Plasser,  P. Pokhilko,  S. Prager,  A. Prociuk,  
 E. Ramos,  B. Rana,  D. R. Rehn,  F. Rob,  E. Rossomme,  M. Scheurer,  
 M. Schneider,  N. Sergueev,  S. M. Sharada,  S. Sharma,  W. Skomorowski,  
 D. W. Small,  T. Stauch,  C. J. Stein,  T. Stein,  Yu-Chuan Su,  
 S. P. Veccham,  Zhen Tao,  A. J. W. Thom,  A. Tkatchenko,  T. Tsuchimochi,  
 N. M. Tubman,  L. Vogt,  M. L. Vidal,  O. Vydrov,  M. A. Watson,  J. Wenzel,  
 M. de Wergifosse,  T. A. Wesolowski,  A. White,  J. Witte,  A. Yamada,  
 Jun Yang,  K. Yao,  S. Yeganeh,  S. R. Yost,  Zhi-Qiang You,  A. Zech,  
 Igor Ying Zhang,  Xing Zhang,  Yan Zhao,  Ying Zhu,  B. R. Brooks,  
 G. K. L. Chan,  C. J. Cramer,  M. S. Gordon,  W. J. Hehre,  A. Klamt,  
 M. W. Schmidt,  C. D. Sherrill,  D. G. Truhlar,  A. Aspuru-Guzik,  R. Baer,  
 A. T. Bell,  N. A. Besley,  Jeng-Da Chai,  A. E. DePrince, III,  
 R. A. DiStasio Jr.,  A. Dreuw,  B. D. Dunietz,  T. R. Furlani,  
 Chao-Ping Hsu,  Yousung Jung,  Jing Kong,  D. S. Lambrecht,  WanZhen Liang,  
 C. Ochsenfeld,  V. A. Rassolov,  L. V. Slipchenko,  J. E. Subotnik,  
 T. Van Voorhis,  J. M. Herbert,  A. I. Krylov,  P. M. W. Gill,  M. Head-Gordon

 Contributors to earlier versions of Q-Chem not listed above: 
 R. D. Adamson,  B. Austin,  J. Baker,  G. J. O. Beran,  K. Brandhorst,  
 S. T. Brown,  E. F. C. Byrd,  A. K. Chakraborty,  C.-L. Cheng,  
 Siu Hung Chien,  D. M. Chipman,  D. L. Crittenden,  H. Dachsel,  
 R. J. Doerksen,  A. D. Dutoi,  L. Fusti-Molnar,  W. A. Goddard III,  
 A. Golubeva-Zadorozhnaya,  S. R. Gwaltney,  G. Hawkins,  A. Heyden,  
 S. Hirata,  G. Kedziora,  F. J. Keil,  C. Kelley,  Jihan Kim,  R. A. King,  
 R. Z. Khaliullin,  P. P. Korambath,  W. Kurlancheek,  A. M. Lee,  M. S. Lee,  
 S. V. Levchenko,  Ching Yeh Lin,  D. Liotard,  R. C. Lochan,  I. Lotan,  
 P. E. Maslen,  N. Nair,  D. P. O'Neill,  D. Neuhauser,  E. Neuscamman,  
 C. M. Oana,  R. Olson,  B. Peters,  R. Peverati,  P. A. Pieniazek,  
 Y. M. Rhee,  J. Ritchie,  M. A. Rohrdanz,  E. Rosta,  N. J. Russ,  
 H. F. Schaefer III,  N. E. Schultz,  N. Shenvi,  A. C. Simmonett,  A. Sodt,  
 D. Stuck,  K. S. Thanthiriwatte,  V. Vanovschi,  Tao Wang,  A. Warshel,  
 C. F. Williams,  Q. Wu,  X. Xu,  W. Zhang

 Please cite Q-Chem as follows:
 Y. Shao et al., Mol. Phys. 113, 184-215 (2015)
 DOI: 10.1080/00268976.2014.952696

 Q-Chem 5.3.1 for Intel X86 EM64T Linux

 Parts of Q-Chem use Armadillo 9.800.1 (Horizon Scraper).
 http://arma.sourceforge.net/

 Q-Chem begins on Wed Jun  9 08:28:47 2021  

Host: 
0

     Scratch files written to /scratch/scaparas/job_3318806/qchem53925//
 Aug2920 |scratch|qcdevops|jenkins|workspace|build_RNUM    
Processing $rem in /cm/shared/apps/spack/cpu/opt/spack/linux-centos8-zen2/gcc-10.2.0/qchem-5.3-5qddma6gy34jvefiv7mbcb7qm253n45r/config/preferences:
Processing $rem in /home/scaparas/.qchemrc:

Checking the input file for inconsistencies... 	...done.

--------------------------------------------------------------
User input:
--------------------------------------------------------------
$molecule
0 1
C         2.1665374654   -0.6554056232    0.0000000000
C         2.1169746126    0.7536230414    0.0000000000
C         0.9078293763    1.4297941068    0.0000000000
C        -0.2602955279    0.6603427264    0.0000000000
N        -1.5823227859    1.0465645945    0.0000000000
H        -1.9138448994    1.9970952131    0.0000000000
C        -2.3831006726   -0.0753467300    0.0000000000
C        -1.6031102305   -1.1965127142    0.0000000000
C        -0.2354025284   -0.7544080528    0.0000000000
C         1.0061117308   -1.4110304737    0.0000000000
H         3.1323502333   -1.1522732729    0.0000000000
H         3.0445811710    1.3187694778    0.0000000000
H         0.8711978004    2.5159935936    0.0000000000
H        -3.4599415153    0.0224367365    0.0000000000
H        -1.9589772753   -2.2174458375    0.0000000000
H         1.0526344532   -2.4968312448    0.0000000000
$end

$rem
BASIS  =  6-31+G*
GUI  =  2
JOB_TYPE  =  Optimization
METHOD  = M06 
SCF_CONVERGENCE  =  8
THRESH = 12
CIS_N_ROOTS  = 3
CIS_SINGLETS = true
CIS_TRIPLETS = false
CIS_STATE_DERIV = 2
$end
--------------------------------------------------------------
 ----------------------------------------------------------------
             Standard Nuclear Orientation (Angstroms)
    I     Atom           X                Y                Z
 ----------------------------------------------------------------
    1      C       2.1545809193    -0.6917179572    -0.0000000000
    2      C       2.1305971189     0.7179781205     0.0000000000
    3      C       0.9339220871     1.4159812583     0.0000000000
    4      C      -0.2479743579     0.6678555924     0.0000000000
    5      N      -1.5627747859     1.0780058536     0.0000000000
    6      H      -1.8769921819     2.0343963579     0.0000000000
    7      C      -2.3837811130    -0.0291882824    -0.0000000000
    8      C      -1.6242659160    -1.1643248026    -0.0000000000
    9      C      -0.2487601923    -0.7471139518    -0.0000000000
   10      C       0.9806332983    -1.4261590938    -0.0000000000
   11      H       3.1112175340    -1.2060312385    -0.0000000000
   12      H       3.0683071256     1.2661973878     0.0000000000
   13      H       0.9170087673     2.5026666484     0.0000000000
   14      H      -3.4586700515     0.0881214642    -0.0000000000
   15      H      -1.9986021312    -2.1786315579    -0.0000000000
   16      H       1.0074433715    -2.5126253373    -0.0000000000
 ----------------------------------------------------------------
 Molecular Point Group                 Cs    NOp =  2
 Largest Abelian Subgroup              Cs    NOp =  2
 Nuclear Repulsion Energy =         400.72813817 hartrees
 There are       31 alpha and       31 beta electrons
 Requested basis set is 6-31+G(d)
 There are 59 shells and 185 basis functions

 Total QAlloc Memory Limit   8000 MB
 Mega-Array Size       188 MB
 MEM_STATIC part       192 MB
 A cutoff of  1.0D-12 yielded   1657 shell pairs
 There are     17105 function pairs
 Smallest overlap matrix eigenvalue = 1.29E-06

 Scale SEOQF with 1.000000e-01/1.000000e-01/1.000000e-01

 Standard Electronic Orientation quadrupole field applied
 Nucleus-field energy     =     0.0000000117 hartrees
 Guess from superposition of atomic densities
 Warning:  Energy on first SCF cycle will be non-variational
 SAD guess density has 62.000000 electrons

 -----------------------------------------------------------------------
  General SCF calculation program by
  Eric Jon Sundstrom, Paul Horn, Yuezhi Mao, Dmitri Zuev, Alec White,
  David Stuck, Shaama M.S., Shane Yost, Joonho Lee, David Small,
  Daniel Levine, Susi Lehtola, Hugh Burton, Evgeny Epifanovsky,
  Bang C. Huynh
 -----------------------------------------------------------------------
 Exchange:     0.2700 Hartree-Fock + 1.0000 M06
 Correlation:  1.0000 M06
 Using SG-3 standard quadrature grid
 using 4 threads for integral computing
 -------------------------------------------------------
 OpenMP Integral computing Module                
 Release: version 1.0, May 2013, Q-Chem Inc. Pittsburgh 
 -------------------------------------------------------
 A restricted SCF calculation will be
 performed using DIIS
 SCF converges when DIIS error is below 1.0e-08
 ---------------------------------------
  Cycle       Energy         DIIS error
 ---------------------------------------
    1    -366.0863221918      5.60e-02  
    2    -363.4252404143      4.88e-03  
    3    -363.3872654322      5.78e-03  
    4    -363.5426228525      1.17e-03  
    5    -363.5477030709      4.72e-04  
    6    -363.5486309286      1.15e-04  
    7    -363.5486763058      5.48e-05  
    8    -363.5486891400      1.06e-05  
    9    -363.5486894721      6.06e-06  
   10    -363.5486896271      9.29e-07  
   11    -363.5486896295      5.66e-07  
   12    -363.5486896308      9.32e-08  
   13    -363.5486896308      4.98e-08  
   14    -363.5486896308      1.18e-08  
   15    -363.5486896308      6.06e-09  Convergence criterion met
 ---------------------------------------
 SCF time:   CPU 263.27s  wall 67.00s 
 SCF   energy in the final basis set =     -363.5486896308
 Total energy in the final basis set =     -363.5486896308
 
 Direct TDDFT/TDA calculation will be performed
 Exchange:     0.2700 Hartree-Fock + 1.0000 M06
 Correlation:  1.0000 M06
 Using SG-3 standard quadrature grid
 Singlet excitation energies requested
 CIS energy converged when residual is below 10e- 6
 ---------------------------------------------------
 Iter    Rts Conv    Rts Left    Ttl Dev     Max Dev
 ---------------------------------------------------
   1         0           3      0.002075    0.001758
   2         0           3      0.000710    0.000638
   3         0           3      0.000242    0.000209
   4         0           3      0.000101    0.000087
   5         1           2      0.000046    0.000038
   6         1           2      0.000023    0.000018
   7         1           2      0.000086    0.000083
   8         2           1      0.000026    0.000025
   9         2           1      0.000024    0.000024
  10         2           1      0.000026    0.000026
  11         2           1      0.000012    0.000011
  12         2           1      0.000004    0.000004
  13         2           1      0.000002    0.000001
  14         3           0      0.000001    0.000000    Roots Converged
 ---------------------------------------------------
 
 ---------------------------------------------------
         TDDFT/TDA Excitation Energies              
 ---------------------------------------------------

 Excited state   1: excitation energy (eV) =    4.2324
 Total energy for state  1:                  -363.39315077 au
    Multiplicity: Singlet
    Trans. Mom.:  0.0000 X  -0.0000 Y   0.0914 Z
    Strength   :     0.0008662679
    D(   31) --> V(    1) amplitude =  0.9956

 Excited state   2: excitation energy (eV) =    4.7101
 Total energy for state  2:                  -363.37559775 au
    Multiplicity: Singlet
    Trans. Mom.:  0.0000 X  -0.0000 Y   0.0861 Z
    Strength   :     0.0008551901
    D(   30) --> V(    1) amplitude =  0.9870

 Excited state   3: excitation energy (eV) =    4.8304
 Total energy for state  3:                  -363.37117576 au
    Multiplicity: Singlet
    Trans. Mom.:  0.0000 X  -0.0000 Y   0.0277 Z
    Strength   :     0.0000910303
    D(   31) --> V(    3) amplitude =  0.9904
 
 ---------------------------------------------------
 Calculating Relaxed Density
 ---------------------------------------------------
 Iter    Rts Conv    Rts Left    Ttl Dev     Max Dev
 ---------------------------------------------------
   1         0           3      0.003455    0.001289
   2         0           3      0.001088    0.000391
   3         0           3      0.000201    0.000079
   4         0           3      0.000064    0.000023
   5         0           3      0.000016    0.000006
   6         0           3      0.000004    0.000001
   7         3           0      0.000000    0.000000    Roots Converged
 ---------------------------------------------------
  SETman timing summary (seconds)
  CPU time              1130.82s
  System time              0.00s
  Wall time              284.26s
 
 --------------------------------------------------------------
             Orbital Energies (a.u.) and Symmetries
 --------------------------------------------------------------
 
 Alpha MOs, Restricted
 -- Occupied --                  
-14.459 -10.294 -10.293 -10.263 -10.258 -10.258 -10.258 -10.253
  1 A'    2 A'    3 A'    4 A'    5 A'    6 A'    7 A'    8 A'                 
-10.249  -0.999  -0.854  -0.797  -0.749  -0.730  -0.637  -0.606
  9 A'   10 A'   11 A'   12 A'   13 A'   14 A'   15 A'   16 A'                 
 -0.594  -0.552  -0.493  -0.482  -0.449  -0.440  -0.440  -0.423
 17 A'   18 A'   19 A'   20 A'   21 A'   22 A'    1 A"   23 A'                 
 -0.402  -0.367  -0.349  -0.347  -0.293  -0.236  -0.220
 24 A'   25 A'    2 A"   26 A'    3 A"    4 A"    5 A"                         
 -- Virtual --                   
 -0.032  -0.015  -0.013  -0.009   0.003   0.006   0.021   0.029
 27 A'    6 A"   28 A'   29 A'   30 A'   31 A'    7 A"   32 A'                 
  0.030   0.034   0.040   0.043   0.065   0.068   0.070   0.070
 33 A'    8 A"    9 A"   34 A'   10 A"   35 A'   11 A"   36 A'                 
  0.096   0.100   0.110   0.117   0.120   0.123   0.132   0.135
 37 A'   12 A"   13 A"   38 A'   39 A'   14 A"   40 A'   15 A"                 
  0.151   0.157   0.161   0.166   0.175   0.176   0.181   0.190
 41 A'   16 A"   42 A'   43 A'   44 A'   45 A'   46 A'   47 A'                 
  0.192   0.200   0.207   0.215   0.215   0.221   0.235   0.238
 17 A"   48 A'   49 A'   50 A'   18 A"   51 A'   52 A'   53 A'                 
  0.247   0.250   0.258   0.270   0.281   0.293   0.297   0.308
 54 A'   55 A'   56 A'   57 A'   58 A'   59 A'   60 A'   61 A'                 
  0.324   0.352   0.355   0.389   0.432   0.437   0.505   0.572
 62 A'   63 A'   64 A'   65 A'   66 A'   67 A'   68 A'   69 A'                 
  0.620   0.653   0.662   0.681   0.700   0.700   0.716   0.720
 70 A'   19 A"   71 A'   20 A"   21 A"   72 A'   22 A"   73 A'                 
  0.728   0.733   0.744   0.759   0.772   0.784   0.801   0.836
 74 A'   23 A"   75 A'   24 A"   25 A"   76 A'   77 A'   26 A"                 
  0.866   0.874   0.881   0.902   0.905   0.923   0.956   0.956
 78 A'   79 A'   80 A'   81 A'   82 A'   83 A'   84 A'   27 A"                 
  0.983   1.006   1.026   1.041   1.085   1.101   1.107   1.156
 85 A'   86 A'   87 A'   88 A'   89 A'   90 A'   91 A'   92 A'                 
  1.167   1.190   1.212   1.239   1.245   1.290   1.324   1.341
 93 A'   94 A'   95 A'   96 A'   28 A"   97 A'   29 A"   98 A'                 
  1.346   1.391   1.406   1.417   1.461   1.463   1.495   1.504
 30 A"   99 A'  100 A'   31 A"   32 A"   33 A"   34 A"   35 A"                 
  1.515   1.560   1.618   1.773   1.824   1.856   1.873   1.881
101 A'  102 A'  103 A'  104 A'  105 A'  106 A'  107 A'   36 A"                 
  1.893   1.935   1.944   1.993   2.049   2.073   2.113   2.148
108 A'  109 A'  110 A'   37 A"  111 A'  112 A'  113 A'  114 A'                 
  2.153   2.158   2.233   2.241   2.249   2.260   2.293   2.363
115 A'   38 A"   39 A"   40 A"   41 A"  116 A'  117 A'   42 A"                 
  2.389   2.410   2.513   2.544   2.611   2.635   2.647   2.669
 43 A"  118 A'  119 A'   44 A"  120 A'  121 A'   45 A"  122 A'                 
  2.714   2.785   2.809   2.836   2.924   2.951   3.059   3.223
123 A'  124 A'  125 A'  126 A'  127 A'  128 A'  129 A'  130 A'                 
  3.401   4.135   4.219   4.250   4.286   4.323   4.363   4.443
131 A'  132 A'  133 A'  134 A'  135 A'  136 A'  137 A'  138 A'                 
  4.484   4.749
139 A'  140 A'                                                                 
 
 Beta MOs, Restricted
 -- Occupied --                  
-14.459 -10.294 -10.293 -10.263 -10.258 -10.258 -10.258 -10.253
  1 A'    2 A'    3 A'    4 A'    5 A'    6 A'    7 A'    8 A'                 
-10.249  -0.999  -0.854  -0.797  -0.749  -0.730  -0.637  -0.606
  9 A'   10 A'   11 A'   12 A'   13 A'   14 A'   15 A'   16 A'                 
 -0.594  -0.552  -0.493  -0.482  -0.449  -0.440  -0.440  -0.423
 17 A'   18 A'   19 A'   20 A'   21 A'   22 A'    1 A"   23 A'                 
 -0.402  -0.367  -0.349  -0.347  -0.293  -0.236  -0.220
 24 A'   25 A'    2 A"   26 A'    3 A"    4 A"    5 A"                         
 -- Virtual --                   
 -0.032  -0.015  -0.013  -0.009   0.003   0.006   0.021   0.029
 27 A'    6 A"   28 A'   29 A'   30 A'   31 A'    7 A"   32 A'                 
  0.030   0.034   0.040   0.043   0.065   0.068   0.070   0.070
 33 A'    8 A"    9 A"   34 A'   10 A"   35 A'   11 A"   36 A'                 
  0.096   0.100   0.110   0.117   0.120   0.123   0.132   0.135
 37 A'   12 A"   13 A"   38 A'   39 A'   14 A"   40 A'   15 A"                 
  0.151   0.157   0.161   0.166   0.175   0.176   0.181   0.190
 41 A'   16 A"   42 A'   43 A'   44 A'   45 A'   46 A'   47 A'                 
  0.192   0.200   0.207   0.215   0.215   0.221   0.235   0.238
 17 A"   48 A'   49 A'   50 A'   18 A"   51 A'   52 A'   53 A'                 
  0.247   0.250   0.258   0.270   0.281   0.293   0.297   0.308
 54 A'   55 A'   56 A'   57 A'   58 A'   59 A'   60 A'   61 A'                 
  0.324   0.352   0.355   0.389   0.432   0.437   0.505   0.572
 62 A'   63 A'   64 A'   65 A'   66 A'   67 A'   68 A'   69 A'                 
  0.620   0.653   0.662   0.681   0.700   0.700   0.716   0.720
 70 A'   19 A"   71 A'   20 A"   21 A"   72 A'   22 A"   73 A'                 
  0.728   0.733   0.744   0.759   0.772   0.784   0.801   0.836
 74 A'   23 A"   75 A'   24 A"   25 A"   76 A'   77 A'   26 A"                 
  0.866   0.874   0.881   0.902   0.905   0.923   0.956   0.956
 78 A'   79 A'   80 A'   81 A'   82 A'   83 A'   84 A'   27 A"                 
  0.983   1.006   1.026   1.041   1.085   1.101   1.107   1.156
 85 A'   86 A'   87 A'   88 A'   89 A'   90 A'   91 A'   92 A'                 
  1.167   1.190   1.212   1.239   1.245   1.290   1.324   1.341
 93 A'   94 A'   95 A'   96 A'   28 A"   97 A'   29 A"   98 A'                 
  1.346   1.391   1.406   1.417   1.461   1.463   1.495   1.504
 30 A"   99 A'  100 A'   31 A"   32 A"   33 A"   34 A"   35 A"                 
  1.515   1.560   1.618   1.773   1.824   1.856   1.873   1.881
101 A'  102 A'  103 A'  104 A'  105 A'  106 A'  107 A'   36 A"                 
  1.893   1.935   1.944   1.993   2.049   2.073   2.113   2.148
108 A'  109 A'  110 A'   37 A"  111 A'  112 A'  113 A'  114 A'                 
  2.153   2.158   2.233   2.241   2.249   2.260   2.293   2.363
115 A'   38 A"   39 A"   40 A"   41 A"  116 A'  117 A'   42 A"                 
  2.389   2.410   2.513   2.544   2.611   2.635   2.647   2.669
 43 A"  118 A'  119 A'   44 A"  120 A'  121 A'   45 A"  122 A'                 
  2.714   2.785   2.809   2.836   2.924   2.951   3.059   3.223
123 A'  124 A'  125 A'  126 A'  127 A'  128 A'  129 A'  130 A'                 
  3.401   4.135   4.219   4.250   4.286   4.323   4.363   4.443
131 A'  132 A'  133 A'  134 A'  135 A'  136 A'  137 A'  138 A'                 
  4.484   4.749
139 A'  140 A'                                                                 
 --------------------------------------------------------------
 
          Ground-State Mulliken Net Atomic Charges

     Atom                 Charge (a.u.)
  ----------------------------------------
      1 C                    -0.017270
      2 C                    -0.446646
      3 C                     0.176823
      4 C                    -1.268686
      5 N                    -0.456639
      6 H                     0.415629
      7 C                    -0.206532
      8 C                     0.160471
      9 C                     0.966987
     10 C                    -0.465630
     11 H                     0.183499
     12 H                     0.185194
     13 H                     0.182803
     14 H                     0.199892
     15 H                     0.201085
     16 H                     0.189022
  ----------------------------------------
  Sum of atomic charges =     0.000000

 -----------------------------------------------------------------
                    Cartesian Multipole Moments
 -----------------------------------------------------------------
    Charge (ESU x 10^10)
                -0.0000
    Dipole Moment (Debye)
         X      -1.4616      Y       1.5324      Z      -0.0000
       Tot       2.1177
    Quadrupole Moments (Debye-Ang)
        XX     -45.0971     XY      -3.1393     YY     -44.2189
        XZ       0.0000     YZ       0.0000     ZZ     -58.4359
    Octopole Moments (Debye-Ang^2)
       XXX     -14.4396    XXY       8.2094    XYY      -8.0747
       YYY      10.4491    XXZ      -0.0000    XYZ      -0.0000
       YYZ       0.0000    XZZ      -2.0571    YZZ       1.9600
       ZZZ      -0.0000
    Hexadecapole Moments (Debye-Ang^3)
      XXXX    -809.2505   XXXY     -21.5894   XXYY    -194.5016
      XYYY     -19.6130   YYYY    -366.3839   XXXZ       0.0000
      XXYZ       0.0000   XYYZ       0.0000   YYYZ      -0.0000
      XXZZ    -187.2921   XYZZ      -3.8547   YYZZ     -92.6661
      XZZZ       0.0000   YZZZ      -0.0000   ZZZZ     -71.6027
 -----------------------------------------------------------------
 Calculating analytic gradient of the CIS energy
 CIS relaxed dipole moment
            1
    1   2.9095914
    2  -2.9264367
    3   0.0000000
	Magnitude:	 4.127 au	10.489 Debye
 CIS 2 State Energy is -363.3755977480
 Gradient of the state energy (including CIS Excitation Energy)
            1           2           3           4           5           6
    1  -0.0003815   0.0150369  -0.0321940   0.0535097  -0.0526762   0.0072498
    2   0.0089409  -0.0287591  -0.0063263  -0.0340431   0.0186912  -0.0189864
    3  -0.0000000  -0.0000000   0.0000000   0.0000000   0.0000000   0.0000000
            7           8           9          10          11          12
    1  -0.0109210   0.0033407  -0.0089694   0.0226960  -0.0008747   0.0001182
    2   0.0176324  -0.0015929   0.0371062   0.0045895   0.0013505  -0.0008336
    3   0.0000000  -0.0000000  -0.0000000   0.0000000  -0.0000000   0.0000000
           13          14          15          16
    1   0.0010360   0.0029562   0.0001104  -0.0000371
    2   0.0018856  -0.0027628   0.0017241   0.0013838
    3   0.0000000   0.0000000   0.0000000   0.0000000
 Gradient time:  CPU 75.42 s  wall 18.99 s
 Geometry Optimization Parameters
   NAtoms,    NIC,     NZ,  NCons,   NDum,   NFix, NCnnct, MaxDiis
       16     116       0       0       0       0       0       0


** GEOMETRY OPTIMIZATION IN DELOCALIZED INTERNAL COORDINATES **
   Searching for a Minimum

   Optimization Cycle:   1

                       Coordinates (Angstroms)
     ATOM                X               Y               Z
      1  C         2.1545809193   -0.6917179572    0.0000000000
      2  C         2.1305971189    0.7179781205    0.0000000000
      3  C         0.9339220871    1.4159812583    0.0000000000
      4  C        -0.2479743579    0.6678555924    0.0000000000
      5  N        -1.5627747859    1.0780058536    0.0000000000
      6  H        -1.8769921819    2.0343963579    0.0000000000
      7  C        -2.3837811130   -0.0291882824    0.0000000000
      8  C        -1.6242659160   -1.1643248026    0.0000000000
      9  C        -0.2487601923   -0.7471139518    0.0000000000
     10  C         0.9806332983   -1.4261590938    0.0000000000
     11  H         3.1112175340   -1.2060312385    0.0000000000
     12  H         3.0683071256    1.2661973878    0.0000000000
     13  H         0.9170087673    2.5026666484    0.0000000000
     14  H        -3.4586700515    0.0881214642    0.0000000000
     15  H        -1.9986021312   -2.1786315579    0.0000000000
     16  H         1.0074433715   -2.5126253373    0.0000000000
   Point Group: cs    Number of degrees of freedom:    29


   Energy is   -363.375597748


 Attempting to generate delocalized internal coordinates
 Initial Hessian constructed with Jon Baker's OPTIMIZE code

 29 Hessian modes will be used to form the next step
  Hessian Eigenvalues:
     0.160000    0.160000    0.160000    0.160000    0.160000    0.160000
     0.160000    0.220000    0.221874    0.226615    0.240154    0.246535
     0.351831    0.351854    0.352547    0.352641    0.358411    0.358524
     0.370243    0.381736    0.421745    0.429383    0.450758    0.465320
     0.465358    0.471677    0.475377    0.478120    0.507735

 Minimum search - taking simple RFO step
 Searching for Lamda that Minimizes Along All modes
 Value Taken    Lamda =  -0.01270340
 Step Taken.  Stepsize is  0.172803

                             Maximum     Tolerance    Cnvgd?
         Gradient           0.035001      0.000300      NO
         Displacement       0.064110      0.001200      NO
         Energy change     *********      0.000001      NO


 New Cartesian Coordinates Obtained by Inverse Iteration

 Displacement from previous Coordinates is:  0.245276
 ----------------------------------------------------------------
             Standard Nuclear Orientation (Angstroms)
    I     Atom           X                Y                Z
 ----------------------------------------------------------------
    1      C       2.1227558355    -0.6874026549     0.0000000000
    2      C       2.1132217419     0.7480267565     0.0000000000
    3      C       0.9415527331     1.4461108587     0.0000000000
    4      C      -0.2504590235     0.6784912901     0.0000000000
    5      N      -1.5213531388     1.0742684454     0.0000000000
    6      H      -1.8497189687     2.0496394105     0.0000000000
    7      C      -2.3455317794    -0.0455873571     0.0000000000
    8      C      -1.6219406040    -1.1945748689     0.0000000000
    9      C      -0.2547870479    -0.7769504647     0.0000000000
   10      C       0.9538350142    -1.4501814177     0.0000000000
   11      H       3.0810529998    -1.2029421779     0.0000000000
   12      H       3.0541888944     1.2915576974     0.0000000000
   13      H       0.9186550648     2.5299698022     0.0000000000
   14      H      -3.4215218287     0.1007086051     0.0000000000
   15      H      -2.0071989706    -2.2073054941     0.0000000000
   16      H       0.9891385704    -2.5384179688     0.0000000000
 ----------------------------------------------------------------
 Molecular Point Group                 Cs    NOp =  2
 Largest Abelian Subgroup              Cs    NOp =  2
 Nuclear Repulsion Energy =         400.95713216 hartrees
 There are       31 alpha and       31 beta electrons
 Applying Cartesian multipole field
    Component          Value
    ---------          -----
     (2,0,0)        1.00000E-11
     (0,2,0)        2.00000E-11
     (0,0,2)       -3.00000E-11
 Nucleus-field energy     =     0.0000000118 hartrees
 Requested basis set is 6-31+G(d)
 There are 59 shells and 185 basis functions
 A cutoff of  1.0D-12 yielded   1659 shell pairs
 There are     17115 function pairs
 Smallest overlap matrix eigenvalue = 1.42E-06
 Guess MOs from SCF MO coefficient file

 -----------------------------------------------------------------------
  General SCF calculation program by
  Eric Jon Sundstrom, Paul Horn, Yuezhi Mao, Dmitri Zuev, Alec White,
  David Stuck, Shaama M.S., Shane Yost, Joonho Lee, David Small,
  Daniel Levine, Susi Lehtola, Hugh Burton, Evgeny Epifanovsky,
  Bang C. Huynh
 -----------------------------------------------------------------------
 Exchange:     0.2700 Hartree-Fock + 1.0000 M06
 Correlation:  1.0000 M06
 Using SG-3 standard quadrature grid
 using 4 threads for integral computing
 -------------------------------------------------------
 OpenMP Integral computing Module                
 Release: version 1.0, May 2013, Q-Chem Inc. Pittsburgh 
 -------------------------------------------------------
 A restricted SCF calculation will be
 performed using DIIS
 SCF converges when DIIS error is below 1.0e-08
 ---------------------------------------
  Cycle       Energy         DIIS error
 ---------------------------------------
    1    -363.5372360930      1.02e-03  
    2    -363.5425087098      2.03e-04  
    3    -363.5425148099      2.07e-04  
    4    -363.5426850157      4.12e-05  
    5    -363.5426909829      1.58e-05  
    6    -363.5426919862      6.29e-06  
    7    -363.5426921871      2.04e-06  
    8    -363.5426922060      7.04e-07  
    9    -363.5426922086      3.11e-07  
   10    -363.5426922090      1.35e-07  
   11    -363.5426922091      3.51e-08  
   12    -363.5426922091      8.53e-09  Convergence criterion met
 ---------------------------------------
 SCF time:   CPU 223.43s  wall 57.00s 
 SCF   energy in the final basis set =     -363.5426922091
 Total energy in the final basis set =     -363.5426922091
 
 Direct TDDFT/TDA calculation will be performed
 Exchange:     0.2700 Hartree-Fock + 1.0000 M06
 Correlation:  1.0000 M06
 Using SG-3 standard quadrature grid
 Singlet excitation energies requested
 CIS energy converged when residual is below 10e- 6
 ---------------------------------------------------
 Iter    Rts Conv    Rts Left    Ttl Dev     Max Dev
 ---------------------------------------------------
   1         0           3      0.000447    0.000165
   2         0           3      0.000096    0.000037
   3         0           3      0.000043    0.000022
   4         0           3      0.000028    0.000023
   5         2           1      0.000016    0.000015
   6         2           1      0.000007    0.000006
   7         2           1      0.000004    0.000003
   8         2           1      0.000005    0.000004
   9         2           1      0.000004    0.000003
  10         2           1      0.000002    0.000001
  11         3           0      0.000001    0.000001    Roots Converged
 ---------------------------------------------------
 
 ---------------------------------------------------
         TDDFT/TDA Excitation Energies              
 ---------------------------------------------------

 Excited state   1: excitation energy (eV) =    4.3238
 Total energy for state  1:                  -363.38379644 au
    Multiplicity: Singlet
    Trans. Mom.: -0.0000 X   0.0000 Y  -0.1012 Z
    Strength   :     0.0010846470
    D(   30) --> V(    1) amplitude =  0.8177
    D(   31) --> V(    1) amplitude = -0.5680

 Excited state   2: excitation energy (eV) =    4.3663
 Total energy for state  2:                  -363.38223490 au
    Multiplicity: Singlet
    Trans. Mom.:  0.0000 X  -0.0000 Y  -0.0750 Z
    Strength   :     0.0006020368
    D(   30) --> V(    1) amplitude =  0.5658
    D(   31) --> V(    1) amplitude =  0.8141

 Excited state   3: excitation energy (eV) =    4.9373
 Total energy for state  3:                  -363.36125002 au
    Multiplicity: Singlet
    Trans. Mom.: -0.0000 X   0.0000 Y   0.0010 Z
    Strength   :     0.0000001274
    D(   31) --> V(    2) amplitude =  0.9754
 
 ---------------------------------------------------
 Calculating Relaxed Density
 ---------------------------------------------------
 Iter    Rts Conv    Rts Left    Ttl Dev     Max Dev
 ---------------------------------------------------
   1         0           3      0.003380    0.001314
   2         0           3      0.001076    0.000410
   3         0           3      0.000219    0.000087
   4         0           3      0.000065    0.000026
   5         0           3      0.000021    0.000009
   6         0           3      0.000004    0.000002
   7         3           0      0.000000    0.000000    Roots Converged
 ---------------------------------------------------
  SETman timing summary (seconds)
  CPU time              1037.45s
  System time              0.00s
  Wall time              261.02s
 
 --------------------------------------------------------------
             Orbital Energies (a.u.) and Symmetries
 --------------------------------------------------------------
 
 Alpha MOs, Restricted
 -- Occupied --                  
-14.464 -10.294 -10.293 -10.261 -10.258 -10.258 -10.257 -10.253
  1 A'    2 A'    3 A'    4 A'    5 A'    6 A'    7 A'    8 A'                 
-10.251  -1.007  -0.849  -0.802  -0.742  -0.731  -0.637  -0.604
  9 A'   10 A'   11 A'   12 A'   13 A'   14 A'   15 A'   16 A'                 
 -0.595  -0.550  -0.496  -0.476  -0.449  -0.444  -0.443  -0.423
 17 A'   18 A'   19 A'   20 A'   21 A'    1 A"   22 A'   23 A'                 
 -0.399  -0.364  -0.346  -0.346  -0.299  -0.225  -0.225
 24 A'   25 A'    2 A"   26 A'    3 A"    4 A"    5 A"                         
 -- Virtual --                   
 -0.033  -0.013  -0.012  -0.009   0.004   0.006   0.020   0.029
 27 A'   28 A'    6 A"   29 A'   30 A'   31 A'    7 A"   32 A'                 
  0.030   0.033   0.041   0.042   0.063   0.068   0.070   0.071
 33 A'    8 A"    9 A"   34 A'   10 A"   35 A'   36 A'   11 A"                 
  0.097   0.100   0.111   0.115   0.119   0.125   0.131   0.135
 37 A'   12 A"   13 A"   38 A'   39 A'   14 A"   40 A'   15 A"                 
  0.148   0.156   0.163   0.167   0.173   0.177   0.179   0.189
 41 A'   16 A"   42 A'   43 A'   44 A'   45 A'   46 A'   47 A'                 
  0.190   0.202   0.206   0.215   0.215   0.220   0.233   0.237
 17 A"   48 A'   49 A'   50 A'   18 A"   51 A'   52 A'   53 A'                 
  0.241   0.250   0.263   0.266   0.278   0.293   0.300   0.310
 54 A'   55 A'   56 A'   57 A'   58 A'   59 A'   60 A'   61 A'                 
  0.325   0.347   0.356   0.394   0.433   0.445   0.502   0.565
 62 A'   63 A'   64 A'   65 A'   66 A'   67 A'   68 A'   69 A'                 
  0.607   0.654   0.662   0.681   0.693   0.698   0.718   0.723
 70 A'   19 A"   71 A'   20 A"   72 A'   21 A"   22 A"   73 A'                 
  0.731   0.732   0.746   0.758   0.773   0.790   0.807   0.835
 74 A'   23 A"   75 A'   24 A"   25 A"   76 A'   77 A'   26 A"                 
  0.866   0.876   0.885   0.899   0.904   0.925   0.955   0.958
 78 A'   79 A'   80 A'   81 A'   82 A'   83 A'   27 A"   84 A'                 
  0.983   1.002   1.025   1.032   1.081   1.098   1.108   1.155
 85 A'   86 A'   87 A'   88 A'   89 A'   90 A'   91 A'   92 A'                 
  1.172   1.189   1.217   1.231   1.246   1.294   1.328   1.346
 93 A'   94 A'   95 A'   96 A'   28 A"   97 A'   29 A"   30 A"                 
  1.347   1.378   1.398   1.420   1.456   1.467   1.495   1.505
 98 A'   99 A'  100 A'   31 A"   32 A"   33 A"   34 A"  101 A'                 
  1.509   1.568   1.630   1.776   1.823   1.849   1.861   1.878
 35 A"  102 A'  103 A'  104 A'  105 A'  106 A'  107 A'   36 A"                 
  1.892   1.928   1.959   2.006   2.058   2.070   2.095   2.147
108 A'  109 A'  110 A'   37 A"  111 A'  112 A'  113 A'   38 A"                 
  2.147   2.159   2.207   2.235   2.261   2.267   2.293   2.375
114 A'  115 A'   39 A"   40 A"   41 A"  116 A'  117 A'   42 A"                 
  2.407   2.412   2.523   2.552   2.607   2.630   2.635   2.676
 43 A"  118 A'  119 A'   44 A"  120 A'  121 A'   45 A"  122 A'                 
  2.707   2.787   2.809   2.828   2.933   2.957   3.069   3.220
123 A'  124 A'  125 A'  126 A'  127 A'  128 A'  129 A'  130 A'                 
  3.385   4.130   4.215   4.259   4.289   4.326   4.361   4.445
131 A'  132 A'  133 A'  134 A'  135 A'  136 A'  137 A'  138 A'                 
  4.487   4.741
139 A'  140 A'                                                                 
 
 Beta MOs, Restricted
 -- Occupied --                  
-14.464 -10.294 -10.293 -10.261 -10.258 -10.258 -10.257 -10.253
  1 A'    2 A'    3 A'    4 A'    5 A'    6 A'    7 A'    8 A'                 
-10.251  -1.007  -0.849  -0.802  -0.742  -0.731  -0.637  -0.604
  9 A'   10 A'   11 A'   12 A'   13 A'   14 A'   15 A'   16 A'                 
 -0.595  -0.550  -0.496  -0.476  -0.449  -0.444  -0.443  -0.423
 17 A'   18 A'   19 A'   20 A'   21 A'    1 A"   22 A'   23 A'                 
 -0.399  -0.364  -0.346  -0.346  -0.299  -0.225  -0.225
 24 A'   25 A'    2 A"   26 A'    3 A"    4 A"    5 A"                         
 -- Virtual --                   
 -0.033  -0.013  -0.012  -0.009   0.004   0.006   0.020   0.029
 27 A'   28 A'    6 A"   29 A'   30 A'   31 A'    7 A"   32 A'                 
  0.030   0.033   0.041   0.042   0.063   0.068   0.070   0.071
 33 A'    8 A"    9 A"   34 A'   10 A"   35 A'   36 A'   11 A"                 
  0.097   0.100   0.111   0.115   0.119   0.125   0.131   0.135
 37 A'   12 A"   13 A"   38 A'   39 A'   14 A"   40 A'   15 A"                 
  0.148   0.156   0.163   0.167   0.173   0.177   0.179   0.189
 41 A'   16 A"   42 A'   43 A'   44 A'   45 A'   46 A'   47 A'                 
  0.190   0.202   0.206   0.215   0.215   0.220   0.233   0.237
 17 A"   48 A'   49 A'   50 A'   18 A"   51 A'   52 A'   53 A'                 
  0.241   0.250   0.263   0.266   0.278   0.293   0.300   0.310
 54 A'   55 A'   56 A'   57 A'   58 A'   59 A'   60 A'   61 A'                 
  0.325   0.347   0.356   0.394   0.433   0.445   0.502   0.565
 62 A'   63 A'   64 A'   65 A'   66 A'   67 A'   68 A'   69 A'                 
  0.607   0.654   0.662   0.681   0.693   0.698   0.718   0.723
 70 A'   19 A"   71 A'   20 A"   72 A'   21 A"   22 A"   73 A'                 
  0.731   0.732   0.746   0.758   0.773   0.790   0.807   0.835
 74 A'   23 A"   75 A'   24 A"   25 A"   76 A'   77 A'   26 A"                 
  0.866   0.876   0.885   0.899   0.904   0.925   0.955   0.958
 78 A'   79 A'   80 A'   81 A'   82 A'   83 A'   27 A"   84 A'                 
  0.983   1.002   1.025   1.032   1.081   1.098   1.108   1.155
 85 A'   86 A'   87 A'   88 A'   89 A'   90 A'   91 A'   92 A'                 
  1.172   1.189   1.217   1.231   1.246   1.294   1.328   1.346
 93 A'   94 A'   95 A'   96 A'   28 A"   97 A'   29 A"   30 A"                 
  1.347   1.378   1.398   1.420   1.456   1.467   1.495   1.505
 98 A'   99 A'  100 A'   31 A"   32 A"   33 A"   34 A"  101 A'                 
  1.509   1.568   1.630   1.776   1.823   1.849   1.861   1.878
 35 A"  102 A'  103 A'  104 A'  105 A'  106 A'  107 A'   36 A"                 
  1.892   1.928   1.959   2.006   2.058   2.070   2.095   2.147
108 A'  109 A'  110 A'   37 A"  111 A'  112 A'  113 A'   38 A"                 
  2.147   2.159   2.207   2.235   2.261   2.267   2.293   2.375
114 A'  115 A'   39 A"   40 A"   41 A"  116 A'  117 A'   42 A"                 
  2.407   2.412   2.523   2.552   2.607   2.630   2.635   2.676
 43 A"  118 A'  119 A'   44 A"  120 A'  121 A'   45 A"  122 A'                 
  2.707   2.787   2.809   2.828   2.933   2.957   3.069   3.220
123 A'  124 A'  125 A'  126 A'  127 A'  128 A'  129 A'  130 A'                 
  3.385   4.130   4.215   4.259   4.289   4.326   4.361   4.445
131 A'  132 A'  133 A'  134 A'  135 A'  136 A'  137 A'  138 A'                 
  4.487   4.741
139 A'  140 A'                                                                 
 --------------------------------------------------------------
 
          Ground-State Mulliken Net Atomic Charges

     Atom                 Charge (a.u.)
  ----------------------------------------
      1 C                    -0.060410
      2 C                    -0.427098
      3 C                     0.190579
      4 C                    -1.176550
      5 N                    -0.434198
      6 H                     0.417337
      7 C                    -0.224152
      8 C                     0.217023
      9 C                     0.842257
     10 C                    -0.482880
     11 H                     0.177420
     12 H                     0.184883
     13 H                     0.183653
     14 H                     0.193945
     15 H                     0.206849
     16 H                     0.191343
  ----------------------------------------
  Sum of atomic charges =     0.000000

 -----------------------------------------------------------------
                    Cartesian Multipole Moments
 -----------------------------------------------------------------
    Charge (ESU x 10^10)
                -0.0000
    Dipole Moment (Debye)
         X      -1.6416      Y       1.5763      Z      -0.0000
       Tot       2.2758
    Quadrupole Moments (Debye-Ang)
        XX     -45.9049     XY      -2.8932     YY     -43.6110
        XZ       0.0000     YZ      -0.0000     ZZ     -58.4903
    Octopole Moments (Debye-Ang^2)
       XXX     -14.2309    XXY       8.7025    XYY      -9.0141
       YYY      10.5609    XXZ      -0.0000    XYZ       0.0000
       YYZ      -0.0000    XZZ      -2.4162    YZZ       2.1327
       ZZZ      -0.0000
    Hexadecapole Moments (Debye-Ang^3)
      XXXX    -805.4349   XXXY     -22.9283   XXYY    -191.9047
      XYYY     -22.9976   YYYY    -373.3110   XXXZ      -0.0000
      XXYZ      -0.0000   XYYZ      -0.0000   YYYZ       0.0000
      XXZZ    -184.3845   XYZZ      -5.2083   YYZZ     -94.6575
      XZZZ       0.0000   YZZZ      -0.0000   ZZZZ     -71.7772
 -----------------------------------------------------------------
 Calculating analytic gradient of the CIS energy
 CIS relaxed dipole moment
            1
    1   2.7772030
    2  -3.0150197
    3   0.0000000
	Magnitude:	 4.099 au	10.419 Debye
 CIS 2 State Energy is -363.3822348988
 Gradient of the state energy (including CIS Excitation Energy)
            1           2           3           4           5           6
    1  -0.0030255   0.0015307  -0.0065895   0.0144278  -0.0126141   0.0031398
    2  -0.0006925  -0.0001038   0.0001914  -0.0052296   0.0077075  -0.0037179
    3  -0.0000000   0.0000000   0.0000000  -0.0000000  -0.0000000   0.0000000
            7           8           9          10          11          12
    1   0.0078203   0.0018181  -0.0091460   0.0036546  -0.0004401  -0.0009321
    2   0.0046986  -0.0075571   0.0062718  -0.0010058  -0.0003779   0.0015607
    3   0.0000000  -0.0000000   0.0000000  -0.0000000   0.0000000  -0.0000000
           13          14          15          16
    1   0.0016670   0.0001475  -0.0001602  -0.0012983
    2   0.0003147  -0.0013457  -0.0005225  -0.0001919
    3  -0.0000000   0.0000000  -0.0000000  -0.0000000
 Gradient time:  CPU 76.46 s  wall 19.24 s
 Geometry Optimization Parameters
   NAtoms,    NIC,     NZ,  NCons,   NDum,   NFix, NCnnct, MaxDiis
       16     116       0       0       0       0       0       0

 Cartesian Hessian Update
 Hessian updated using BFGS update


** GEOMETRY OPTIMIZATION IN DELOCALIZED INTERNAL COORDINATES **
   Searching for a Minimum

   Optimization Cycle:   2

                       Coordinates (Angstroms)
     ATOM                X               Y               Z
      1  C         2.1227558355   -0.6874026549    0.0000000000
      2  C         2.1132217419    0.7480267565    0.0000000000
      3  C         0.9415527331    1.4461108587    0.0000000000
      4  C        -0.2504590235    0.6784912901    0.0000000000
      5  N        -1.5213531388    1.0742684454    0.0000000000
      6  H        -1.8497189687    2.0496394105    0.0000000000
      7  C        -2.3455317794   -0.0455873571    0.0000000000
      8  C        -1.6219406040   -1.1945748689    0.0000000000
      9  C        -0.2547870479   -0.7769504647    0.0000000000
     10  C         0.9538350142   -1.4501814177    0.0000000000
     11  H         3.0810529998   -1.2029421779    0.0000000000
     12  H         3.0541888944    1.2915576974    0.0000000000
     13  H         0.9186550648    2.5299698022    0.0000000000
     14  H        -3.4215218287    0.1007086051    0.0000000000
     15  H        -2.0071989706   -2.2073054941    0.0000000000
     16  H         0.9891385704   -2.5384179688    0.0000000000
   Point Group: cs    Number of degrees of freedom:    29


   Energy is   -363.382234899

 Hessian updated using BFGS update

 24 Hessian modes will be used to form the next step
  Hessian Eigenvalues:
     0.156626    0.160639    0.219010    0.222354    0.235690    0.246378
     0.249013    0.350890    0.351898    0.352368    0.352551    0.353836
     0.358686    0.358879    0.384316    0.414446    0.434237    0.444101
     0.454950    0.468295    0.472385    0.474758    0.492073    0.501644

 Minimum search - taking simple RFO step
 Searching for Lamda that Minimizes Along All modes
 Value Taken    Lamda =  -0.00095686
 Step Taken.  Stepsize is  0.063873

                             Maximum     Tolerance    Cnvgd?
         Gradient           0.009819      0.000300      NO
         Displacement       0.041367      0.001200      NO
         Energy change     -0.006637      0.000001      NO


 New Cartesian Coordinates Obtained by Inverse Iteration

 Displacement from previous Coordinates is:  0.069280
 ----------------------------------------------------------------
             Standard Nuclear Orientation (Angstroms)
    I     Atom           X                Y                Z
 ----------------------------------------------------------------
    1      C       2.1288773274    -0.6874597962     0.0000000000
    2      C       2.1152991307     0.7477930890     0.0000000000
    3      C       0.9441791816     1.4447828269     0.0000000000
    4      C      -0.2570400258     0.6788305884     0.0000000000
    5      N      -1.5197640940     1.0678497990     0.0000000000
    6      H      -1.8583969822     2.0471023135     0.0000000000
    7      C      -2.3566233487    -0.0460543329     0.0000000000
    8      C      -1.6258240170    -1.1875058514     0.0000000000
    9      C      -0.2499088085    -0.7821185467     0.0000000000
   10      C       0.9581204202    -1.4520452836     0.0000000000
   11      H       3.0900915627    -1.1985494842     0.0000000000
   12      H       3.0617224457     1.2819214692     0.0000000000
   13      H       0.9109920079     2.5277421216     0.0000000000
   14      H      -3.4317890873     0.1120643596     0.0000000000
   15      H      -2.0121086802    -2.1991440723     0.0000000000
   16      H       1.0040624600    -2.5397987384     0.0000000000
 ----------------------------------------------------------------
 Molecular Point Group                 Cs    NOp =  2
 Largest Abelian Subgroup              Cs    NOp =  2
 Nuclear Repulsion Energy =         400.64349553 hartrees
 There are       31 alpha and       31 beta electrons
 Applying Cartesian multipole field
    Component          Value
    ---------          -----
     (2,0,0)        1.00000E-11
     (0,2,0)        2.00000E-11
     (0,0,2)       -3.00000E-11
 Nucleus-field energy     =     0.0000000118 hartrees
 Requested basis set is 6-31+G(d)
 There are 59 shells and 185 basis functions
 A cutoff of  1.0D-12 yielded   1659 shell pairs
 There are     17115 function pairs
 Smallest overlap matrix eigenvalue = 1.43E-06
 Guess MOs from SCF MO coefficient file

 -----------------------------------------------------------------------
  General SCF calculation program by
  Eric Jon Sundstrom, Paul Horn, Yuezhi Mao, Dmitri Zuev, Alec White,
  David Stuck, Shaama M.S., Shane Yost, Joonho Lee, David Small,
  Daniel Levine, Susi Lehtola, Hugh Burton, Evgeny Epifanovsky,
  Bang C. Huynh
 -----------------------------------------------------------------------
 Exchange:     0.2700 Hartree-Fock + 1.0000 M06
 Correlation:  1.0000 M06
 Using SG-3 standard quadrature grid
 using 4 threads for integral computing
 -------------------------------------------------------
 OpenMP Integral computing Module                
 Release: version 1.0, May 2013, Q-Chem Inc. Pittsburgh 
 -------------------------------------------------------
 A restricted SCF calculation will be
 performed using DIIS
 SCF converges when DIIS error is below 1.0e-08
 ---------------------------------------
  Cycle       Energy         DIIS error
 ---------------------------------------
    1    -363.5413980387      2.46e-04  
    2    -363.5417178428      5.84e-05  
    3    -363.5417067089      7.85e-05  
    4    -363.5417327852      1.19e-05  
    5    -363.5417332946      5.86e-06  
    6    -363.5417334524      1.46e-06  
    7    -363.5417334627      9.83e-07  
    8    -363.5417334667      1.50e-07  
    9    -363.5417334667      1.28e-07  
   10    -363.5417334668      2.69e-08  
   11    -363.5417334668      1.22e-08  
   12    -363.5417334668      2.40e-09  Convergence criterion met
 ---------------------------------------
 SCF time:   CPU 228.74s  wall 58.00s 
 SCF   energy in the final basis set =     -363.5417334668
 Total energy in the final basis set =     -363.5417334668
 
 Direct TDDFT/TDA calculation will be performed
 Exchange:     0.2700 Hartree-Fock + 1.0000 M06
 Correlation:  1.0000 M06
 Using SG-3 standard quadrature grid
 Singlet excitation energies requested
 CIS energy converged when residual is below 10e- 6
 ---------------------------------------------------
 Iter    Rts Conv    Rts Left    Ttl Dev     Max Dev
 ---------------------------------------------------
   1         0           3      0.000444    0.000176
   2         0           3      0.000095    0.000039
   3         0           3      0.000046    0.000026
   4         0           3      0.000030    0.000027
   5         2           1      0.000018    0.000017
   6         2           1      0.000006    0.000005
   7         2           1      0.000003    0.000002
   8         2           1      0.000002    0.000001
   9         2           1      0.000002    0.000001
  10         3           0      0.000001    0.000001    Roots Converged
 ---------------------------------------------------
 
 ---------------------------------------------------
         TDDFT/TDA Excitation Energies              
 ---------------------------------------------------

 Excited state   1: excitation energy (eV) =    4.3104
 Total energy for state  1:                  -363.38333012 au
    Multiplicity: Singlet
    Trans. Mom.: -0.0000 X  -0.0000 Y  -0.0070 Z
    Strength   :     0.0000051367
    D(   30) --> V(    1) amplitude =  0.3059
    D(   31) --> V(    1) amplitude =  0.9448

 Excited state   2: excitation energy (eV) =    4.3492
 Total energy for state  2:                  -363.38190506 au
    Multiplicity: Singlet
    Trans. Mom.:  0.0000 X   0.0000 Y  -0.1266 Z
    Strength   :     0.0017078105
    D(   30) --> V(    1) amplitude =  0.9467
    D(   31) --> V(    1) amplitude = -0.3024

 Excited state   3: excitation energy (eV) =    4.9070
 Total energy for state  3:                  -363.36140437 au
    Multiplicity: Singlet
    Trans. Mom.:  0.0000 X   0.0000 Y   0.0143 Z
    Strength   :     0.0000246055
    D(   31) --> V(    2) amplitude =  0.9671
    D(   31) --> V(    4) amplitude = -0.2129
 
 ---------------------------------------------------
 Calculating Relaxed Density
 ---------------------------------------------------
 Iter    Rts Conv    Rts Left    Ttl Dev     Max Dev
 ---------------------------------------------------
   1         0           3      0.003450    0.001304
   2         0           3      0.001091    0.000410
   3         0           3      0.000204    0.000078
   4         0           3      0.000075    0.000029
   5         0           3      0.000020    0.000008
   6         0           3      0.000005    0.000002
   7         3           0      0.000000    0.000000    Roots Converged
 ---------------------------------------------------
  SETman timing summary (seconds)
  CPU time               985.06s
  System time              0.00s
  Wall time              247.51s
 
 --------------------------------------------------------------
             Orbital Energies (a.u.) and Symmetries
 --------------------------------------------------------------
 
 Alpha MOs, Restricted
 -- Occupied --                  
-14.464 -10.295 -10.293 -10.261 -10.258 -10.258 -10.257 -10.253
  1 A'    2 A'    3 A'    4 A'    5 A'    6 A'    7 A'    8 A'                 
-10.251  -1.008  -0.848  -0.801  -0.741  -0.732  -0.637  -0.603
  9 A'   10 A'   11 A'   12 A'   13 A'   14 A'   15 A'   16 A'                 
 -0.595  -0.549  -0.498  -0.478  -0.446  -0.445  -0.442  -0.423
 17 A'   18 A'   19 A'   20 A'   21 A'    1 A"   22 A'   23 A'                 
 -0.401  -0.366  -0.346  -0.343  -0.299  -0.227  -0.223
 24 A'   25 A'    2 A"   26 A'    3 A"    4 A"    5 A"                         
 -- Virtual --                   
 -0.033  -0.013  -0.012  -0.009   0.004   0.006   0.020   0.029
 27 A'   28 A'    6 A"   29 A'   30 A'   31 A'    7 A"   32 A'                 
  0.030   0.033   0.041   0.042   0.064   0.068   0.070   0.072
 33 A'    8 A"    9 A"   34 A'   10 A"   35 A'   36 A'   11 A"                 
  0.097   0.100   0.111   0.115   0.119   0.125   0.131   0.134
 37 A'   12 A"   13 A"   38 A'   39 A'   14 A"   40 A'   15 A"                 
  0.148   0.156   0.163   0.167   0.173   0.176   0.179   0.189
 41 A'   16 A"   42 A'   43 A'   44 A'   45 A'   46 A'   17 A"                 
  0.190   0.201   0.206   0.215   0.216   0.220   0.233   0.238
 47 A'   48 A'   49 A'   50 A'   18 A"   51 A'   52 A'   53 A'                 
  0.240   0.251   0.263   0.266   0.279   0.292   0.300   0.309
 54 A'   55 A'   56 A'   57 A'   58 A'   59 A'   60 A'   61 A'                 
  0.324   0.346   0.356   0.392   0.430   0.448   0.504   0.563
 62 A'   63 A'   64 A'   65 A'   66 A'   67 A'   68 A'   69 A'                 
  0.606   0.654   0.662   0.681   0.692   0.698   0.719   0.725
 70 A'   19 A"   71 A'   20 A"   72 A'   21 A"   22 A"   73 A'                 
  0.729   0.732   0.746   0.758   0.773   0.791   0.806   0.835
 74 A'   23 A"   75 A'   24 A"   25 A"   76 A'   77 A'   26 A"                 
  0.866   0.877   0.884   0.901   0.905   0.925   0.955   0.958
 78 A'   79 A'   80 A'   81 A'   82 A'   83 A'   27 A"   84 A'                 
  0.982   1.002   1.022   1.032   1.081   1.096   1.108   1.155
 85 A'   86 A'   87 A'   88 A'   89 A'   90 A'   91 A'   92 A'                 
  1.171   1.189   1.217   1.230   1.246   1.293   1.328   1.346
 93 A'   94 A'   95 A'   96 A'   28 A"   97 A'   29 A"   98 A'                 
  1.347   1.378   1.398   1.418   1.460   1.467   1.495   1.509
 30 A"   99 A'  100 A'   31 A"   32 A"   33 A"   34 A"   35 A"                 
  1.509   1.566   1.627   1.775   1.821   1.846   1.860   1.878
101 A'  102 A'  103 A'  104 A'  105 A'  106 A'  107 A'   36 A"                 
  1.893   1.927   1.960   2.002   2.054   2.066   2.098   2.140
108 A'  109 A'  110 A'   37 A"  111 A'  112 A'  113 A'   38 A"                 
  2.150   2.157   2.207   2.243   2.260   2.262   2.289   2.371
114 A'  115 A'   39 A"   40 A"   41 A"  116 A'  117 A'   42 A"                 
  2.409   2.411   2.525   2.555   2.609   2.630   2.633   2.673
 43 A"  118 A'  119 A'   44 A"  120 A'  121 A'   45 A"  122 A'                 
  2.705   2.785   2.812   2.827   2.942   2.951   3.065   3.224
123 A'  124 A'  125 A'  126 A'  127 A'  128 A'  129 A'  130 A'                 
  3.380   4.130   4.215   4.258   4.290   4.325   4.361   4.445
131 A'  132 A'  133 A'  134 A'  135 A'  136 A'  137 A'  138 A'                 
  4.488   4.741
139 A'  140 A'                                                                 
 
 Beta MOs, Restricted
 -- Occupied --                  
-14.464 -10.295 -10.293 -10.261 -10.258 -10.258 -10.257 -10.253
  1 A'    2 A'    3 A'    4 A'    5 A'    6 A'    7 A'    8 A'                 
-10.251  -1.008  -0.848  -0.801  -0.741  -0.732  -0.637  -0.603
  9 A'   10 A'   11 A'   12 A'   13 A'   14 A'   15 A'   16 A'                 
 -0.595  -0.549  -0.498  -0.478  -0.446  -0.445  -0.442  -0.423
 17 A'   18 A'   19 A'   20 A'   21 A'    1 A"   22 A'   23 A'                 
 -0.401  -0.366  -0.346  -0.343  -0.299  -0.227  -0.223
 24 A'   25 A'    2 A"   26 A'    3 A"    4 A"    5 A"                         
 -- Virtual --                   
 -0.033  -0.013  -0.012  -0.009   0.004   0.006   0.020   0.029
 27 A'   28 A'    6 A"   29 A'   30 A'   31 A'    7 A"   32 A'                 
  0.030   0.033   0.041   0.042   0.064   0.068   0.070   0.072
 33 A'    8 A"    9 A"   34 A'   10 A"   35 A'   36 A'   11 A"                 
  0.097   0.100   0.111   0.115   0.119   0.125   0.131   0.134
 37 A'   12 A"   13 A"   38 A'   39 A'   14 A"   40 A'   15 A"                 
  0.148   0.156   0.163   0.167   0.173   0.176   0.179   0.189
 41 A'   16 A"   42 A'   43 A'   44 A'   45 A'   46 A'   17 A"                 
  0.190   0.201   0.206   0.215   0.216   0.220   0.233   0.238
 47 A'   48 A'   49 A'   50 A'   18 A"   51 A'   52 A'   53 A'                 
  0.240   0.251   0.263   0.266   0.279   0.292   0.300   0.309
 54 A'   55 A'   56 A'   57 A'   58 A'   59 A'   60 A'   61 A'                 
  0.324   0.346   0.356   0.392   0.430   0.448   0.504   0.563
 62 A'   63 A'   64 A'   65 A'   66 A'   67 A'   68 A'   69 A'                 
  0.606   0.654   0.662   0.681   0.692   0.698   0.719   0.725
 70 A'   19 A"   71 A'   20 A"   72 A'   21 A"   22 A"   73 A'                 
  0.729   0.732   0.746   0.758   0.773   0.791   0.806   0.835
 74 A'   23 A"   75 A'   24 A"   25 A"   76 A'   77 A'   26 A"                 
  0.866   0.877   0.884   0.901   0.905   0.925   0.955   0.958
 78 A'   79 A'   80 A'   81 A'   82 A'   83 A'   27 A"   84 A'                 
  0.982   1.002   1.022   1.032   1.081   1.096   1.108   1.155
 85 A'   86 A'   87 A'   88 A'   89 A'   90 A'   91 A'   92 A'                 
  1.171   1.189   1.217   1.230   1.246   1.293   1.328   1.346
 93 A'   94 A'   95 A'   96 A'   28 A"   97 A'   29 A"   98 A'                 
  1.347   1.378   1.398   1.418   1.460   1.467   1.495   1.509
 30 A"   99 A'  100 A'   31 A"   32 A"   33 A"   34 A"   35 A"                 
  1.509   1.566   1.627   1.775   1.821   1.846   1.860   1.878
101 A'  102 A'  103 A'  104 A'  105 A'  106 A'  107 A'   36 A"                 
  1.893   1.927   1.960   2.002   2.054   2.066   2.098   2.140
108 A'  109 A'  110 A'   37 A"  111 A'  112 A'  113 A'   38 A"                 
  2.150   2.157   2.207   2.243   2.260   2.262   2.289   2.371
114 A'  115 A'   39 A"   40 A"   41 A"  116 A'  117 A'   42 A"                 
  2.409   2.411   2.525   2.555   2.609   2.630   2.633   2.673
 43 A"  118 A'  119 A'   44 A"  120 A'  121 A'   45 A"  122 A'                 
  2.705   2.785   2.812   2.827   2.942   2.951   3.065   3.224
123 A'  124 A'  125 A'  126 A'  127 A'  128 A'  129 A'  130 A'                 
  3.380   4.130   4.215   4.258   4.290   4.325   4.361   4.445
131 A'  132 A'  133 A'  134 A'  135 A'  136 A'  137 A'  138 A'                 
  4.488   4.741
139 A'  140 A'                                                                 
 --------------------------------------------------------------
 
          Ground-State Mulliken Net Atomic Charges

     Atom                 Charge (a.u.)
  ----------------------------------------
      1 C                    -0.058916
      2 C                    -0.430774
      3 C                     0.198077
      4 C                    -1.148855
      5 N                    -0.432641
      6 H                     0.416179
      7 C                    -0.212033
      8 C                     0.181886
      9 C                     0.830661
     10 C                    -0.481994
     11 H                     0.177434
     12 H                     0.185189
     13 H                     0.182253
     14 H                     0.196310
     15 H                     0.205190
     16 H                     0.192034
  ----------------------------------------
  Sum of atomic charges =     0.000000

 -----------------------------------------------------------------
                    Cartesian Multipole Moments
 -----------------------------------------------------------------
    Charge (ESU x 10^10)
                -0.0000
    Dipole Moment (Debye)
         X      -1.6686      Y       1.5906      Z      -0.0000
       Tot       2.3053
    Quadrupole Moments (Debye-Ang)
        XX     -45.6944     XY      -3.0554     YY     -43.7489
        XZ       0.0000     YZ       0.0000     ZZ     -58.5155
    Octopole Moments (Debye-Ang^2)
       XXX     -14.5994    XXY       8.9621    XYY      -9.0376
       YYY      10.5747    XXZ      -0.0000    XYZ       0.0000
       YYZ      -0.0000    XZZ      -2.4299    YZZ       2.1818
       ZZZ      -0.0000
    Hexadecapole Moments (Debye-Ang^3)
      XXXX    -805.9005   XXXY     -23.5116   XXYY    -192.7405
      XYYY     -23.4968   YYYY    -373.6860   XXXZ       0.0000
      XXYZ      -0.0000   XYYZ       0.0000   YYYZ      -0.0000
      XXZZ    -185.2584   XYZZ      -5.0421   YYZZ     -94.5367
      XZZZ       0.0000   YZZZ      -0.0000   ZZZZ     -71.8647
 -----------------------------------------------------------------
 Calculating analytic gradient of the CIS energy
 CIS relaxed dipole moment
            1
    1   2.5188525
    2  -2.9650257
    3  -0.0000000
	Magnitude:	 3.891 au	 9.889 Debye
 CIS 2 State Energy is -363.3819050560
 Gradient of the state energy (including CIS Excitation Energy)
            1           2           3           4           5           6
    1   0.0125226  -0.0068998   0.0381646  -0.0429496   0.0551946   0.0021389
    2   0.0192368   0.0179861   0.0024467   0.0026354   0.0046968   0.0028614
    3   0.0000000   0.0000000  -0.0000000  -0.0000000   0.0000000  -0.0000000
            7           8           9          10          11          12
    1  -0.0009359  -0.0529359   0.0424706  -0.0473593   0.0005184  -0.0006785
    2  -0.0613544   0.0230303  -0.0090459  -0.0016544  -0.0002728  -0.0001007
    3   0.0000000  -0.0000000   0.0000000  -0.0000000   0.0000000   0.0000000
           13          14          15          16
    1   0.0006964   0.0005717   0.0002671  -0.0007860
    2  -0.0004904  -0.0007941   0.0007622   0.0000568
    3   0.0000000   0.0000000  -0.0000000  -0.0000000
 Gradient time:  CPU 74.74 s  wall 18.83 s
 Geometry Optimization Parameters
   NAtoms,    NIC,     NZ,  NCons,   NDum,   NFix, NCnnct, MaxDiis
       16     116       0       0       0       0       0       0

 Cartesian Hessian Update
 Hessian updated using BFGS update


** GEOMETRY OPTIMIZATION IN DELOCALIZED INTERNAL COORDINATES **
   Searching for a Minimum

   Optimization Cycle:   3

                       Coordinates (Angstroms)
     ATOM                X               Y               Z
      1  C         2.1288773274   -0.6874597962    0.0000000000
      2  C         2.1152991307    0.7477930890    0.0000000000
      3  C         0.9441791816    1.4447828269    0.0000000000
      4  C        -0.2570400258    0.6788305884    0.0000000000
      5  N        -1.5197640940    1.0678497990    0.0000000000
      6  H        -1.8583969822    2.0471023135    0.0000000000
      7  C        -2.3566233487   -0.0460543329    0.0000000000
      8  C        -1.6258240170   -1.1875058514    0.0000000000
      9  C        -0.2499088085   -0.7821185467    0.0000000000
     10  C         0.9581204202   -1.4520452836    0.0000000000
     11  H         3.0900915627   -1.1985494842    0.0000000000
     12  H         3.0617224457    1.2819214692    0.0000000000
     13  H         0.9109920079    2.5277421216    0.0000000000
     14  H        -3.4317890873    0.1120643596    0.0000000000
     15  H        -2.0121086802   -2.1991440723    0.0000000000
     16  H         1.0040624600   -2.5397987384    0.0000000000
   Point Group: cs    Number of degrees of freedom:    29


   Energy is   -363.381905056

 Hessian updated using BFGS update

 25 Hessian modes will be used to form the next step
  Hessian Eigenvalues:
     0.059653    0.160122    0.160361    0.183340    0.223050    0.225413
     0.242771    0.247838    0.351734    0.351884    0.352526    0.352627
     0.357550    0.358615    0.362270    0.390673    0.422978    0.429207
     0.444056    0.455506    0.468745    0.474539    0.483159    0.490881
     4.354502

 Minimum search - taking simple RFO step
 Searching for Lamda that Minimizes Along All modes
 Value Taken    Lamda =  -0.00350140
 Step Taken.  Stepsize is  0.148373

                             Maximum     Tolerance    Cnvgd?
         Gradient           0.063363      0.000300      NO
         Displacement       0.085577      0.001200      NO
         Energy change      0.000330      0.000001      NO


 New Cartesian Coordinates Obtained by Inverse Iteration

 Displacement from previous Coordinates is:  0.222303
 ----------------------------------------------------------------
             Standard Nuclear Orientation (Angstroms)
    I     Atom           X                Y                Z
 ----------------------------------------------------------------
    1      C       2.1496989652    -0.7014703420     0.0000000000
    2      C       2.1124858482     0.7319258587     0.0000000000
    3      C       0.9371978631     1.4351990208     0.0000000000
    4      C      -0.2778711422     0.6840532667     0.0000000000
    5      N      -1.5342690175     1.0663342228     0.0000000000
    6      H      -1.9047039305     2.0495450755     0.0000000000
    7      C      -2.3802132152    -0.0309737261     0.0000000000
    8      C      -1.6159907374    -1.1623392204     0.0000000000
    9      C      -0.2339550476    -0.7874218177     0.0000000000
   10      C       0.9822637925    -1.4600915769     0.0000000000
   11      H       3.1188050244    -1.1990281364     0.0000000000
   12      H       3.0694835437     1.2479140742     0.0000000000
   13      H       0.8837334107     2.5162320120     0.0000000000
   14      H      -3.4546974061     0.1455894079     0.0000000000
   15      H      -2.0003557617    -2.1735431236     0.0000000000
   16      H       1.0502773029    -2.5465145341     0.0000000000
 ----------------------------------------------------------------
 Molecular Point Group                 Cs    NOp =  2
 Largest Abelian Subgroup              Cs    NOp =  2
 Nuclear Repulsion Energy =         399.92814489 hartrees
 There are       31 alpha and       31 beta electrons
 Applying Cartesian multipole field
    Component          Value
    ---------          -----
     (2,0,0)        1.00000E-11
     (0,2,0)        2.00000E-11
     (0,0,2)       -3.00000E-11
 Nucleus-field energy     =     0.0000000118 hartrees
 Requested basis set is 6-31+G(d)
 There are 59 shells and 185 basis functions
 A cutoff of  1.0D-12 yielded   1657 shell pairs
 There are     17105 function pairs
 Smallest overlap matrix eigenvalue = 1.42E-06
 Guess MOs from SCF MO coefficient file

 -----------------------------------------------------------------------
  General SCF calculation program by
  Eric Jon Sundstrom, Paul Horn, Yuezhi Mao, Dmitri Zuev, Alec White,
  David Stuck, Shaama M.S., Shane Yost, Joonho Lee, David Small,
  Daniel Levine, Susi Lehtola, Hugh Burton, Evgeny Epifanovsky,
  Bang C. Huynh
 -----------------------------------------------------------------------
 Exchange:     0.2700 Hartree-Fock + 1.0000 M06
 Correlation:  1.0000 M06
 Using SG-3 standard quadrature grid
 using 4 threads for integral computing
 -------------------------------------------------------
 OpenMP Integral computing Module                
 Release: version 1.0, May 2013, Q-Chem Inc. Pittsburgh 
 -------------------------------------------------------
 A restricted SCF calculation will be
 performed using DIIS
 SCF converges when DIIS error is below 1.0e-08
 ---------------------------------------
  Cycle       Energy         DIIS error
 ---------------------------------------
    1    -363.5378539540      6.05e-04  
    2    -363.5395851317      1.23e-04  
    3    -363.5395247189      1.70e-04  
    4    -363.5396477605      2.83e-05  
    5    -363.5396508063      1.28e-05  
    6    -363.5396515070      2.31e-06  
    7    -363.5396515261      1.54e-06  
    8    -363.5396515362      2.81e-07  
    9    -363.5396515366      1.77e-07  
   10    -363.5396515367      5.21e-08  
   11    -363.5396515368      2.12e-08  
   12    -363.5396515368      4.73e-09  Convergence criterion met
 ---------------------------------------
 SCF time:   CPU 214.99s  wall 54.00s 
 SCF   energy in the final basis set =     -363.5396515368
 Total energy in the final basis set =     -363.5396515368
 
 Direct TDDFT/TDA calculation will be performed
 Exchange:     0.2700 Hartree-Fock + 1.0000 M06
 Correlation:  1.0000 M06
 Using SG-3 standard quadrature grid
 Singlet excitation energies requested
 CIS energy converged when residual is below 10e- 6
 ---------------------------------------------------
 Iter    Rts Conv    Rts Left    Ttl Dev     Max Dev
 ---------------------------------------------------
   1         0           3      0.002104    0.001774
   2         0           3      0.000874    0.000797
   3         0           3      0.000222    0.000195
   4         0           3      0.000100    0.000092
   5         1           2      0.000058    0.000057
   6         2           1      0.000031    0.000030
   7         2           1      0.000081    0.000081
   8         2           1      0.000400    0.000399
   9         2           1      0.000150    0.000149
  10         2           1      0.000046    0.000045
  11         2           1      0.000017    0.000016
  12         2           1      0.000005    0.000005
  13         2           1      0.000002    0.000002
  14         3           0      0.000001    0.000000    Roots Converged
 ---------------------------------------------------
 
 ---------------------------------------------------
         TDDFT/TDA Excitation Energies              
 ---------------------------------------------------

 Excited state   1: excitation energy (eV) =    4.2311
 Total energy for state  1:                  -363.38416117 au
    Multiplicity: Singlet
    Trans. Mom.:  0.0000 X  -0.0000 Y   0.1032 Z
    Strength   :     0.0011048630
    D(   31) --> V(    1) amplitude =  0.9808

 Excited state   2: excitation energy (eV) =    4.3351
 Total energy for state  2:                  -363.38033898 au
    Multiplicity: Singlet
    Trans. Mom.:  0.0000 X  -0.0000 Y  -0.0712 Z
    Strength   :     0.0005378017
    D(   30) --> V(    1) amplitude =  0.9777

 Excited state   3: excitation energy (eV) =    4.7416
 Total energy for state  3:                  -363.36540035 au
    Multiplicity: Singlet
    Trans. Mom.:  0.6514 X   0.3536 Y   0.0000 Z
    Strength   :     0.0638278377
    D(   30) --> V(    2) amplitude =  0.8326
    D(   31) --> V(    7) amplitude =  0.5021
 
 ---------------------------------------------------
 Calculating Relaxed Density
 ---------------------------------------------------
 Iter    Rts Conv    Rts Left    Ttl Dev     Max Dev
 ---------------------------------------------------
   1         0           3      0.002855    0.001400
   2         0           3      0.000955    0.000457
   3         0           3      0.000184    0.000079
   4         0           3      0.000065    0.000032
   5         0           3      0.000017    0.000008
   6         1           2      0.000003    0.000002
   7         3           0      0.000000    0.000000    Roots Converged
 ---------------------------------------------------
  SETman timing summary (seconds)
  CPU time              1083.75s
  System time              0.00s
  Wall time              272.47s
 
 --------------------------------------------------------------
             Orbital Energies (a.u.) and Symmetries
 --------------------------------------------------------------
 
 Alpha MOs, Restricted
 -- Occupied --                  
-14.467 -10.296 -10.293 -10.262 -10.260 -10.259 -10.259 -10.253
  1 A'    2 A'    3 A'    4 A'    5 A'    6 A'    7 A'    8 A'                 
-10.251  -1.011  -0.847  -0.797  -0.743  -0.731  -0.639  -0.601
  9 A'   10 A'   11 A'   12 A'   13 A'   14 A'   15 A'   16 A'                 
 -0.593  -0.549  -0.500  -0.481  -0.446  -0.444  -0.439  -0.421
 17 A'   18 A'   19 A'   20 A'    1 A"   21 A'   22 A'   23 A'                 
 -0.400  -0.370  -0.346  -0.338  -0.297  -0.226  -0.224
 24 A'   25 A'    2 A"   26 A'    3 A"    4 A"    5 A"                         
 -- Virtual --                   
 -0.035  -0.014  -0.013  -0.009   0.003   0.006   0.020   0.028
 27 A'    6 A"   28 A'   29 A'   30 A'   31 A'    7 A"   32 A'                 
  0.030   0.034   0.041   0.042   0.065   0.068   0.070   0.072
 33 A'    8 A"    9 A"   34 A'   10 A"   35 A'   36 A'   11 A"                 
  0.096   0.100   0.111   0.115   0.119   0.125   0.130   0.135
 37 A'   12 A"   13 A"   38 A'   39 A'   14 A"   40 A'   15 A"                 
  0.147   0.156   0.162   0.165   0.173   0.176   0.182   0.188
 41 A'   16 A"   42 A'   43 A'   44 A'   45 A'   46 A'   17 A"                 
  0.190   0.201   0.205   0.214   0.215   0.218   0.232   0.237
 47 A'   48 A'   49 A'   50 A'   18 A"   51 A'   52 A'   53 A'                 
  0.240   0.255   0.261   0.269   0.277   0.292   0.302   0.310
 54 A'   55 A'   56 A'   57 A'   58 A'   59 A'   60 A'   61 A'                 
  0.322   0.343   0.356   0.387   0.423   0.453   0.506   0.558
 62 A'   63 A'   64 A'   65 A'   66 A'   67 A'   68 A'   69 A'                 
  0.607   0.654   0.663   0.681   0.695   0.699   0.719   0.726
 70 A'   19 A"   71 A'   20 A"   72 A'   21 A"   22 A"   73 A'                 
  0.729   0.733   0.745   0.758   0.773   0.790   0.803   0.835
 74 A'   23 A"   75 A'   24 A"   25 A"   76 A'   77 A'   26 A"                 
  0.863   0.876   0.882   0.907   0.908   0.923   0.955   0.958
 78 A'   79 A'   80 A'   81 A'   82 A'   83 A'   27 A"   84 A'                 
  0.979   1.000   1.016   1.031   1.080   1.095   1.105   1.155
 85 A'   86 A'   87 A'   88 A'   89 A'   90 A'   91 A'   92 A'                 
  1.167   1.187   1.219   1.228   1.245   1.296   1.327   1.343
 93 A'   94 A'   95 A'   96 A'   28 A"   97 A'   29 A"   98 A'                 
  1.352   1.377   1.402   1.410   1.467   1.468   1.494   1.507
 30 A"   99 A'  100 A'   31 A"   32 A"   33 A"   34 A"   35 A"                 
  1.525   1.562   1.619   1.763   1.812   1.843   1.866   1.878
101 A'  102 A'  103 A'  104 A'  105 A'  106 A'  107 A'   36 A"                 
  1.895   1.927   1.959   1.995   2.044   2.048   2.110   2.127
108 A'  109 A'  110 A'   37 A"  111 A'  112 A'  113 A'   38 A"                 
  2.151   2.155   2.206   2.248   2.252   2.266   2.283   2.359
114 A'  115 A'   39 A"   40 A"  116 A'   41 A"  117 A'   42 A"                 
  2.410   2.411   2.531   2.557   2.615   2.624   2.630   2.667
 43 A"  118 A'  119 A'   44 A"  120 A'  121 A'   45 A"  122 A'                 
  2.700   2.775   2.813   2.831   2.936   2.956   3.049   3.240
123 A'  124 A'  125 A'  126 A'  127 A'  128 A'  129 A'  130 A'                 
  3.368   4.136   4.214   4.256   4.285   4.322   4.363   4.445
131 A'  132 A'  133 A'  134 A'  135 A'  136 A'  137 A'  138 A'                 
  4.487   4.743
139 A'  140 A'                                                                 
 
 Beta MOs, Restricted
 -- Occupied --                  
-14.467 -10.296 -10.293 -10.262 -10.260 -10.259 -10.259 -10.253
  1 A'    2 A'    3 A'    4 A'    5 A'    6 A'    7 A'    8 A'                 
-10.251  -1.011  -0.847  -0.797  -0.743  -0.731  -0.639  -0.601
  9 A'   10 A'   11 A'   12 A'   13 A'   14 A'   15 A'   16 A'                 
 -0.593  -0.549  -0.500  -0.481  -0.446  -0.444  -0.439  -0.421
 17 A'   18 A'   19 A'   20 A'    1 A"   21 A'   22 A'   23 A'                 
 -0.400  -0.370  -0.346  -0.338  -0.297  -0.226  -0.224
 24 A'   25 A'    2 A"   26 A'    3 A"    4 A"    5 A"                         
 -- Virtual --                   
 -0.035  -0.014  -0.013  -0.009   0.003   0.006   0.020   0.028
 27 A'    6 A"   28 A'   29 A'   30 A'   31 A'    7 A"   32 A'                 
  0.030   0.034   0.041   0.042   0.065   0.068   0.070   0.072
 33 A'    8 A"    9 A"   34 A'   10 A"   35 A'   36 A'   11 A"                 
  0.096   0.100   0.111   0.115   0.119   0.125   0.130   0.135
 37 A'   12 A"   13 A"   38 A'   39 A'   14 A"   40 A'   15 A"                 
  0.147   0.156   0.162   0.165   0.173   0.176   0.182   0.188
 41 A'   16 A"   42 A'   43 A'   44 A'   45 A'   46 A'   17 A"                 
  0.190   0.201   0.205   0.214   0.215   0.218   0.232   0.237
 47 A'   48 A'   49 A'   50 A'   18 A"   51 A'   52 A'   53 A'                 
  0.240   0.255   0.261   0.269   0.277   0.292   0.302   0.310
 54 A'   55 A'   56 A'   57 A'   58 A'   59 A'   60 A'   61 A'                 
  0.322   0.343   0.356   0.387   0.423   0.453   0.506   0.558
 62 A'   63 A'   64 A'   65 A'   66 A'   67 A'   68 A'   69 A'                 
  0.607   0.654   0.663   0.681   0.695   0.699   0.719   0.726
 70 A'   19 A"   71 A'   20 A"   72 A'   21 A"   22 A"   73 A'                 
  0.729   0.733   0.745   0.758   0.773   0.790   0.803   0.835
 74 A'   23 A"   75 A'   24 A"   25 A"   76 A'   77 A'   26 A"                 
  0.863   0.876   0.882   0.907   0.908   0.923   0.955   0.958
 78 A'   79 A'   80 A'   81 A'   82 A'   83 A'   27 A"   84 A'                 
  0.979   1.000   1.016   1.031   1.080   1.095   1.105   1.155
 85 A'   86 A'   87 A'   88 A'   89 A'   90 A'   91 A'   92 A'                 
  1.167   1.187   1.219   1.228   1.245   1.296   1.327   1.343
 93 A'   94 A'   95 A'   96 A'   28 A"   97 A'   29 A"   98 A'                 
  1.352   1.377   1.402   1.410   1.467   1.468   1.494   1.507
 30 A"   99 A'  100 A'   31 A"   32 A"   33 A"   34 A"   35 A"                 
  1.525   1.562   1.619   1.763   1.812   1.843   1.866   1.878
101 A'  102 A'  103 A'  104 A'  105 A'  106 A'  107 A'   36 A"                 
  1.895   1.927   1.959   1.995   2.044   2.048   2.110   2.127
108 A'  109 A'  110 A'   37 A"  111 A'  112 A'  113 A'   38 A"                 
  2.151   2.155   2.206   2.248   2.252   2.266   2.283   2.359
114 A'  115 A'   39 A"   40 A"  116 A'   41 A"  117 A'   42 A"                 
  2.410   2.411   2.531   2.557   2.615   2.624   2.630   2.667
 43 A"  118 A'  119 A'   44 A"  120 A'  121 A'   45 A"  122 A'                 
  2.700   2.775   2.813   2.831   2.936   2.956   3.049   3.240
123 A'  124 A'  125 A'  126 A'  127 A'  128 A'  129 A'  130 A'                 
  3.368   4.136   4.214   4.256   4.285   4.322   4.363   4.445
131 A'  132 A'  133 A'  134 A'  135 A'  136 A'  137 A'  138 A'                 
  4.487   4.743
[...]
 CIS energy converged when residual is below 10e- 6
 ---------------------------------------------------
 Iter    Rts Conv    Rts Left    Ttl Dev     Max Dev
 ---------------------------------------------------
   1         0           3      0.000445    0.000166
   2         0           3      0.000095    0.000038
   3         0           3      0.000047    0.000027
   4         0           3      0.000032    0.000028
   5         2           1      0.000019    0.000018
   6         2           1      0.000006    0.000006
   7         2           1      0.000003    0.000002
   8         2           1      0.000002    0.000001
   9         2           1      0.000002    0.000001
  10         2           1      0.000002    0.000001
  11         3           0      0.000001    0.000001    Roots Converged
 ---------------------------------------------------
 
 ---------------------------------------------------
         TDDFT/TDA Excitation Energies              
 ---------------------------------------------------

 Excited state   1: excitation energy (eV) =    4.3144
 Total energy for state  1:                  -363.38370050 au
    Multiplicity: Singlet
    Trans. Mom.:  0.0000 X   0.0000 Y   0.0998 Z
    Strength   :     0.0010526027
    D(   30) --> V(    1) amplitude =  0.9369
    D(   31) --> V(    1) amplitude =  0.3363

 Excited state   2: excitation energy (eV) =    4.3412
 Total energy for state  2:                  -363.38271562 au
    Multiplicity: Singlet
    Trans. Mom.: -0.0000 X  -0.0000 Y  -0.0774 Z
    Strength   :     0.0006375887
    D(   30) --> V(    1) amplitude = -0.3352
    D(   31) --> V(    1) amplitude =  0.9332

 Excited state   3: excitation energy (eV) =    4.9329
 Total energy for state  3:                  -363.36097001 au
    Multiplicity: Singlet
    Trans. Mom.: -0.0000 X  -0.0000 Y  -0.0130 Z
    Strength   :     0.0000203766
    D(   31) --> V(    2) amplitude =  0.9639
    D(   31) --> V(    4) amplitude = -0.2212
 
 ---------------------------------------------------
 Calculating Relaxed Density
 ---------------------------------------------------
 Iter    Rts Conv    Rts Left    Ttl Dev     Max Dev
 ---------------------------------------------------
   1         0           3      0.003367    0.001321
   2         0           3      0.001060    0.000406
   3         0           3      0.000220    0.000088
   4         0           3      0.000063    0.000025
   5         0           3      0.000021    0.000009
   6         0           3      0.000004    0.000002
   7         3           0      0.000000    0.000000    Roots Converged
 ---------------------------------------------------
  SETman timing summary (seconds)
  CPU time               987.32s
  System time              0.00s
  Wall time              248.03s
 
 --------------------------------------------------------------
             Orbital Energies (a.u.) and Symmetries
 --------------------------------------------------------------
 
 Alpha MOs, Restricted
 -- Occupied --                  
-14.465 -10.295 -10.293 -10.261 -10.258 -10.258 -10.257 -10.253
  1 A'    2 A'    3 A'    4 A'    5 A'    6 A'    7 A'    8 A'                 
-10.251  -1.007  -0.848  -0.801  -0.742  -0.731  -0.637  -0.603
  9 A'   10 A'   11 A'   12 A'   13 A'   14 A'   15 A'   16 A'                 
 -0.594  -0.549  -0.497  -0.478  -0.446  -0.444  -0.443  -0.422
 17 A'   18 A'   19 A'   20 A'   21 A'    1 A"   22 A'   23 A'                 
 -0.400  -0.366  -0.346  -0.343  -0.299  -0.226  -0.224
 24 A'   25 A'    2 A"   26 A'    3 A"    4 A"    5 A"                         
 -- Virtual --                   
 -0.033  -0.013  -0.012  -0.009   0.003   0.006   0.020   0.029
 27 A'   28 A'    6 A"   29 A'   30 A'   31 A'    7 A"   32 A'                 
  0.030   0.033   0.041   0.042   0.064   0.068   0.070   0.072
 33 A'    8 A"    9 A"   34 A'   10 A"   35 A'   36 A'   11 A"                 
  0.097   0.100   0.111   0.115   0.119   0.125   0.131   0.135
 37 A'   12 A"   13 A"   38 A'   39 A'   14 A"   40 A'   15 A"                 
  0.148   0.156   0.163   0.167   0.173   0.176   0.180   0.189
 41 A'   16 A"   42 A'   43 A'   44 A'   45 A'   46 A'   17 A"                 
  0.190   0.202   0.206   0.215   0.215   0.220   0.233   0.238
 47 A'   48 A'   49 A'   50 A'   18 A"   51 A'   52 A'   53 A'                 
  0.240   0.252   0.263   0.266   0.278   0.293   0.300   0.309
 54 A'   55 A'   56 A'   57 A'   58 A'   59 A'   60 A'   61 A'                 
  0.324   0.346   0.356   0.392   0.430   0.448   0.504   0.563
 62 A'   63 A'   64 A'   65 A'   66 A'   67 A'   68 A'   69 A'                 
  0.607   0.654   0.662   0.681   0.693   0.698   0.719   0.725
 70 A'   19 A"   71 A'   20 A"   72 A'   21 A"   22 A"   73 A'                 
  0.729   0.732   0.746   0.758   0.773   0.791   0.806   0.835
 74 A'   23 A"   75 A'   24 A"   25 A"   76 A'   77 A'   26 A"                 
  0.866   0.877   0.884   0.901   0.905   0.924   0.955   0.958
 78 A'   79 A'   80 A'   81 A'   82 A'   83 A'   27 A"   84 A'                 
  0.982   1.002   1.023   1.031   1.081   1.097   1.107   1.155
 85 A'   86 A'   87 A'   88 A'   89 A'   90 A'   91 A'   92 A'                 
  1.172   1.188   1.217   1.230   1.246   1.295   1.328   1.346
 93 A'   94 A'   95 A'   96 A'   28 A"   97 A'   29 A"   98 A'                 
  1.347   1.379   1.399   1.418   1.459   1.467   1.495   1.509
 30 A"   99 A'  100 A'   31 A"   32 A"   33 A"   34 A"   35 A"                 
  1.512   1.564   1.627   1.772   1.820   1.846   1.862   1.878
101 A'  102 A'  103 A'  104 A'  105 A'  106 A'  107 A'   36 A"                 
  1.893   1.927   1.959   2.003   2.054   2.064   2.097   2.140
108 A'  109 A'  110 A'   37 A"  111 A'  112 A'  113 A'   38 A"                 
  2.150   2.158   2.207   2.241   2.261   2.261   2.289   2.370
114 A'  115 A'   39 A"   40 A"   41 A"  116 A'  117 A'   42 A"                 
  2.409   2.411   2.526   2.554   2.610   2.630   2.633   2.674
 43 A"  118 A'  119 A'   44 A"  120 A'  121 A'   45 A"  122 A'                 
  2.704   2.784   2.812   2.827   2.941   2.951   3.064   3.225
123 A'  124 A'  125 A'  126 A'  127 A'  128 A'  129 A'  130 A'                 
  3.380   4.131   4.216   4.258   4.288   4.325   4.361   4.445
131 A'  132 A'  133 A'  134 A'  135 A'  136 A'  137 A'  138 A'                 
  4.487   4.741
139 A'  140 A'                                                                 
 
 Beta MOs, Restricted
 -- Occupied --                  
-14.465 -10.295 -10.293 -10.261 -10.258 -10.258 -10.257 -10.253
  1 A'    2 A'    3 A'    4 A'    5 A'    6 A'    7 A'    8 A'                 
-10.251  -1.007  -0.848  -0.801  -0.742  -0.731  -0.637  -0.603
  9 A'   10 A'   11 A'   12 A'   13 A'   14 A'   15 A'   16 A'                 
 -0.594  -0.549  -0.497  -0.478  -0.446  -0.444  -0.443  -0.422
 17 A'   18 A'   19 A'   20 A'   21 A'    1 A"   22 A'   23 A'                 
 -0.400  -0.366  -0.346  -0.343  -0.299  -0.226  -0.224
 24 A'   25 A'    2 A"   26 A'    3 A"    4 A"    5 A"                         
 -- Virtual --                   
 -0.033  -0.013  -0.012  -0.009   0.003   0.006   0.020   0.029
 27 A'   28 A'    6 A"   29 A'   30 A'   31 A'    7 A"   32 A'                 
  0.030   0.033   0.041   0.042   0.064   0.068   0.070   0.072
 33 A'    8 A"    9 A"   34 A'   10 A"   35 A'   36 A'   11 A"                 
  0.097   0.100   0.111   0.115   0.119   0.125   0.131   0.135
 37 A'   12 A"   13 A"   38 A'   39 A'   14 A"   40 A'   15 A"                 
  0.148   0.156   0.163   0.167   0.173   0.176   0.180   0.189
 41 A'   16 A"   42 A'   43 A'   44 A'   45 A'   46 A'   17 A"                 
  0.190   0.202   0.206   0.215   0.215   0.220   0.233   0.238
 47 A'   48 A'   49 A'   50 A'   18 A"   51 A'   52 A'   53 A'                 
  0.240   0.252   0.263   0.266   0.278   0.293   0.300   0.309
 54 A'   55 A'   56 A'   57 A'   58 A'   59 A'   60 A'   61 A'                 
  0.324   0.346   0.356   0.392   0.430   0.448   0.504   0.563
 62 A'   63 A'   64 A'   65 A'   66 A'   67 A'   68 A'   69 A'                 
  0.607   0.654   0.662   0.681   0.693   0.698   0.719   0.725
 70 A'   19 A"   71 A'   20 A"   72 A'   21 A"   22 A"   73 A'                 
  0.729   0.732   0.746   0.758   0.773   0.791   0.806   0.835
 74 A'   23 A"   75 A'   24 A"   25 A"   76 A'   77 A'   26 A"                 
  0.866   0.877   0.884   0.901   0.905   0.924   0.955   0.958
 78 A'   79 A'   80 A'   81 A'   82 A'   83 A'   27 A"   84 A'                 
  0.982   1.002   1.023   1.031   1.081   1.097   1.107   1.155
 85 A'   86 A'   87 A'   88 A'   89 A'   90 A'   91 A'   92 A'                 
  1.172   1.188   1.217   1.230   1.246   1.295   1.328   1.346
 93 A'   94 A'   95 A'   96 A'   28 A"   97 A'   29 A"   98 A'                 
  1.347   1.379   1.399   1.418   1.459   1.467   1.495   1.509
 30 A"   99 A'  100 A'   31 A"   32 A"   33 A"   34 A"   35 A"                 
  1.512   1.564   1.627   1.772   1.820   1.846   1.862   1.878
101 A'  102 A'  103 A'  104 A'  105 A'  106 A'  107 A'   36 A"                 
  1.893   1.927   1.959   2.003   2.054   2.064   2.097   2.140
108 A'  109 A'  110 A'   37 A"  111 A'  112 A'  113 A'   38 A"                 
  2.150   2.158   2.207   2.241   2.261   2.261   2.289   2.370
114 A'  115 A'   39 A"   40 A"   41 A"  116 A'  117 A'   42 A"                 
  2.409   2.411   2.526   2.554   2.610   2.630   2.633   2.674
 43 A"  118 A'  119 A'   44 A"  120 A'  121 A'   45 A"  122 A'                 
  2.704   2.784   2.812   2.827   2.941   2.951   3.064   3.225
123 A'  124 A'  125 A'  126 A'  127 A'  128 A'  129 A'  130 A'                 
  3.380   4.131   4.216   4.258   4.288   4.325   4.361   4.445
131 A'  132 A'  133 A'  134 A'  135 A'  136 A'  137 A'  138 A'                 
  4.487   4.741
139 A'  140 A'                                                                 
 --------------------------------------------------------------
 
          Ground-State Mulliken Net Atomic Charges

     Atom                 Charge (a.u.)
  ----------------------------------------
      1 C                    -0.055490
      2 C                    -0.435398
      3 C                     0.200573
      4 C                    -1.143656
      5 N                    -0.432334
      6 H                     0.416777
      7 C                    -0.215778
      8 C                     0.184786
      9 C                     0.819037
     10 C                    -0.476359
     11 H                     0.177945
     12 H                     0.184657
     13 H                     0.182267
     14 H                     0.195992
     15 H                     0.204982
     16 H                     0.191998
  ----------------------------------------
  Sum of atomic charges =     0.000000

 -----------------------------------------------------------------
                    Cartesian Multipole Moments
 -----------------------------------------------------------------
    Charge (ESU x 10^10)
                -0.0000
    Dipole Moment (Debye)
         X      -1.6617      Y       1.5906      Z      -0.0000
       Tot       2.3003
    Quadrupole Moments (Debye-Ang)
        XX     -45.6647     XY      -3.1537     YY     -43.7515
        XZ      -0.0000     YZ       0.0000     ZZ     -58.5174
    Octopole Moments (Debye-Ang^2)
       XXX     -14.5150    XXY       9.0017    XYY      -9.1111
       YYY      10.5519    XXZ      -0.0000    XYZ      -0.0000
       YYZ       0.0000    XZZ      -2.3853    YZZ       2.1519
       ZZZ      -0.0000
    Hexadecapole Moments (Debye-Ang^3)
      XXXX    -805.7393   XXXY     -23.6157   XXYY    -192.5907
      XYYY     -23.0090   YYYY    -373.7926   XXXZ      -0.0000
      XXYZ      -0.0000   XYYZ       0.0000   YYYZ       0.0000
      XXZZ    -185.2501   XYZZ      -4.7340   YYZZ     -94.5433
      XZZZ      -0.0000   YZZZ      -0.0000   ZZZZ     -71.8622
 -----------------------------------------------------------------
 Calculating analytic gradient of the CIS energy
 CIS relaxed dipole moment
            1
    1   2.8366515
    2  -2.9724794
    3   0.0000000
	Magnitude:	 4.109 au	10.444 Debye
 CIS 2 State Energy is -363.3827156206
 Gradient of the state energy (including CIS Excitation Energy)
            1           2           3           4           5           6
    1  -0.0011402   0.0001073  -0.0020663   0.0024317  -0.0032411  -0.0000791
    2  -0.0018734  -0.0004551  -0.0001262   0.0002026  -0.0001985  -0.0001618
    3  -0.0000000   0.0000000   0.0000000   0.0000000  -0.0000000   0.0000000
            7           8           9          10          11          12
    1   0.0002878   0.0034572  -0.0030880   0.0034020  -0.0000292   0.0000189
    2   0.0037662  -0.0014996   0.0002250   0.0001113  -0.0000076   0.0000355
    3   0.0000000  -0.0000000   0.0000000   0.0000000   0.0000000  -0.0000000
           13          14          15          16
    1  -0.0000094  -0.0000817  -0.0000083   0.0000386
    2  -0.0000070   0.0000015  -0.0000217   0.0000088
    3  -0.0000000   0.0000000  -0.0000000  -0.0000000
 Gradient time:  CPU 71.96 s  wall 18.13 s
 Geometry Optimization Parameters
   NAtoms,    NIC,     NZ,  NCons,   NDum,   NFix, NCnnct, MaxDiis
       16     116       0       0       0       0       0       0

 Cartesian Hessian Update
 Hessian updated using BFGS update


** GEOMETRY OPTIMIZATION IN DELOCALIZED INTERNAL COORDINATES **
   Searching for a Minimum

   Optimization Cycle:  15

                       Coordinates (Angstroms)
     ATOM                X               Y               Z
      1  C         2.1294629975   -0.6913561151    0.0000000000
      2  C         2.1134174925    0.7436392108    0.0000000000
      3  C         0.9432319081    1.4437439472    0.0000000000
      4  C        -0.2589719453    0.6827846276    0.0000000000
      5  N        -1.5241458552    1.0720509360    0.0000000000
      6  H        -1.8696328750    2.0484357685    0.0000000000
      7  C        -2.3566041942   -0.0445303283    0.0000000000
      8  C        -1.6210588493   -1.1862017056    0.0000000000
      9  C        -0.2491763608   -0.7800706285    0.0000000000
     10  C         0.9613010710   -1.4519058189    0.0000000000
     11  H         3.0911715986   -1.2006414728    0.0000000000
     12  H         3.0611621763    1.2759909171    0.0000000000
     13  H         0.9106529122    2.5272659397    0.0000000000
     14  H        -3.4311637185    0.1150153318    0.0000000000
     15  H        -2.0052350055   -2.1992091842    0.0000000000
     16  H         1.0074781403   -2.5396009636    0.0000000000
   Point Group: cs    Number of degrees of freedom:    29


   Energy is   -363.382715621

 Hessian updated using BFGS update

 29 Hessian modes will be used to form the next step
  Hessian Eigenvalues:
     0.147297    0.159315    0.159991    0.160022    0.160101    0.160568
     0.162063    0.222767    0.225738    0.240713    0.252063    0.258564
     0.351957    0.352233    0.352538    0.353149    0.358442    0.361358
     0.369449    0.399917    0.425900    0.434442    0.453323    0.461405
     0.474479    0.486536    0.556226    2.445386   19.357312

 Minimum search - taking simple RFO step
 Searching for Lamda that Minimizes Along All modes
 Value Taken    Lamda =  -0.00000206
 Step Taken.  Stepsize is  0.000624

                             Maximum     Tolerance    Cnvgd?
         Gradient           0.003897      0.000300      NO
         Displacement       0.000243      0.001200     YES
         Energy change     -0.000005      0.000001      NO


 New Cartesian Coordinates Obtained by Inverse Iteration

 Displacement from previous Coordinates is:  0.000736
 ----------------------------------------------------------------
             Standard Nuclear Orientation (Angstroms)
    I     Atom           X                Y                Z
 ----------------------------------------------------------------
    1      C       2.1295207562    -0.6912988015     0.0000000000
    2      C       2.1134971243     0.7436143430     0.0000000000
    3      C       0.9432926058     1.4437152985     0.0000000000
    4      C      -0.2589754938     0.6827429298     0.0000000000
    5      N      -1.5241494288     1.0720393876     0.0000000000
    6      H      -1.8696470998     2.0484439599     0.0000000000
    7      C      -2.3567377388    -0.0446258187     0.0000000000
    8      C      -1.6211635443    -1.1861890061     0.0000000000
    9      C      -0.2491514687    -0.7800625428     0.0000000000
   10      C       0.9613105677    -1.4518428443     0.0000000000
   11      H       3.0912537416    -1.2005181556     0.0000000000
   12      H       3.0613142276     1.2758496619     0.0000000000
   13      H       0.9105814897     2.5272524362     0.0000000000
   14      H      -3.4312510006     0.1150749817     0.0000000000
   15      H      -2.0052853939    -2.1992436076     0.0000000000
   16      H       1.0074801482    -2.5395417605     0.0000000000
 ----------------------------------------------------------------
 Molecular Point Group                 Cs    NOp =  2
 Largest Abelian Subgroup              Cs    NOp =  2
 Nuclear Repulsion Energy =         400.58970078 hartrees
 There are       31 alpha and       31 beta electrons
 Applying Cartesian multipole field
    Component          Value
    ---------          -----
     (2,0,0)        1.00000E-11
     (0,2,0)        2.00000E-11
     (0,0,2)       -3.00000E-11
 Nucleus-field energy     =     0.0000000118 hartrees
 Requested basis set is 6-31+G(d)
 There are 59 shells and 185 basis functions
 A cutoff of  1.0D-12 yielded   1659 shell pairs
 There are     17115 function pairs
 Smallest overlap matrix eigenvalue = 1.44E-06
 Guess MOs from SCF MO coefficient file

 -----------------------------------------------------------------------
  General SCF calculation program by
  Eric Jon Sundstrom, Paul Horn, Yuezhi Mao, Dmitri Zuev, Alec White,
  David Stuck, Shaama M.S., Shane Yost, Joonho Lee, David Small,
  Daniel Levine, Susi Lehtola, Hugh Burton, Evgeny Epifanovsky,
  Bang C. Huynh
 -----------------------------------------------------------------------
 Exchange:     0.2700 Hartree-Fock + 1.0000 M06
 Correlation:  1.0000 M06
 Using SG-3 standard quadrature grid
 using 4 threads for integral computing
 -------------------------------------------------------
 OpenMP Integral computing Module                
 Release: version 1.0, May 2013, Q-Chem Inc. Pittsburgh 
 -------------------------------------------------------
 A restricted SCF calculation will be
 performed using DIIS
 SCF converges when DIIS error is below 1.0e-08
 ---------------------------------------
  Cycle       Energy         DIIS error
 ---------------------------------------
    1    -363.5422548032      2.32e-06  
    2    -363.5422548361      7.48e-07  
    3    -363.5422548351      8.96e-07  
    4    -363.5422548386      1.69e-07  
    5    -363.5422548387      8.08e-08  
    6    -363.5422548387      1.76e-08  
    7    -363.5422548387      1.17e-08  
    8    -363.5422548387      2.00e-09  Convergence criterion met
 ---------------------------------------
 SCF time:   CPU 143.53s  wall 36.00s 
 SCF   energy in the final basis set =     -363.5422548387
 Total energy in the final basis set =     -363.5422548387
 
 Direct TDDFT/TDA calculation will be performed
 Exchange:     0.2700 Hartree-Fock + 1.0000 M06
 Correlation:  1.0000 M06
 Using SG-3 standard quadrature grid
 Singlet excitation energies requested
 CIS energy converged when residual is below 10e- 6
 ---------------------------------------------------
 Iter    Rts Conv    Rts Left    Ttl Dev     Max Dev
 ---------------------------------------------------
   1         0           3      0.000445    0.000165
   2         0           3      0.000095    0.000038
   3         0           3      0.000047    0.000027
