
Running Job 1 of 1 indole-tddft-wB97X-2.in
qchem indole-tddft-wB97X-2.in_9745.0 /scratch/scaparas/job_3318598/qchem9745/ 0
/cm/shared/apps/spack/cpu/opt/spack/linux-centos8-zen2/gcc-10.2.0/qchem-5.3-5qddma6gy34jvefiv7mbcb7qm253n45r/exe/qcprog.exe_s indole-tddft-wB97X-2.in_9745.0 /scratch/scaparas/job_3318598/qchem9745/
                  Welcome to Q-Chem
     A Quantum Leap Into The Future Of Chemistry


 Q-Chem 5.3, Q-Chem, Inc., Pleasanton, CA (2020)

 License issued to: University of California, San Diego (site)

 Yihan Shao,  Zhengting Gan,  E. Epifanovsky,  A. T. B. Gilbert,  M. Wormit,  
 J. Kussmann,  A. W. Lange,  A. Behn,  Jia Deng,  Xintian Feng,  D. Ghosh,  
 M. Goldey,  P. R. Horn,  L. D. Jacobson,  I. Kaliman,  T. Kus,  A. Landau,  
 Jie Liu,  E. I. Proynov,  R. M. Richard,  R. P. Steele,  E. J. Sundstrom,  
 H. L. Woodcock III,  P. M. Zimmerman,  D. Zuev,  B. Alam,  B. Albrecht,  
 A. Aldossary,  E. Alguire,  S. A. Baeppler,  D. Barton,  Z. Benda,  
 Y. A. Bernard,  E. J. Berquist,  K. B. Bravaya,  H. Burton,  K. Carter-Fenk,  
 D. Casanova,  Chun-Min Chang,  Yunqing Chen,  A. Chien,  K. D. Closser,  
 M. P. Coons,  S. Coriani,  S. Dasgupta,  A. L. Dempwolff,  M. Diedenhofen,  
 Hainam Do,  R. G. Edgar,  Po-Tung Fang,  S. Faraji,  S. Fatehi,  
 Qingguo Feng,  J. Fosso-Tande,  J. Gayvert,  Qinghui Ge,  A. Ghysels,  
 G. Gidofalvi,  J. Gomes,  J. Gonthier,  S. Gulania,  A. Gunina,  D. Hait,  
 M. W. D. Hanson-Heine,  S. Hammes-Schiffer,  P. H. P. Harbach,  
 A. W. Hauser,  M. F. Herbst,  J. E. Herr,  E. G. Hohenstein,  Z. C. Holden,  
 S. Houck,  Kerwin Hui,  B. C. Huynh,  M. Ivanov,  T.-C. Jagau,  Hyunjun Ji,  
 B. Kaduk,  K. Khistyaev,  Jaehoon Kim,  P. Klunzinger,  K. Koh,  
 D. Kosenkov,  L. Koulias,  T. Kowalczyk,  C. M. Krauter,  A. Kunitsa,  
 Ka Un Lao,  A. Laurent,  K. V. Lawler,  Joonho Lee,  D. Lefrancois,  
 S. Lehtola,  D. S. Levine,  Yi-Pei Li,  You-Sheng Lin,  Fenglai Liu,  
 Kuan-Yu Liu,  E. Livshits,  M. Loipersberger,  A. Luenser,  P. Manohar,  
 E. Mansoor,  S. F. Manzer,  Shan-Ping Mao,  Yuezhi Mao,  N. Mardirossian,  
 A. V. Marenich,  T. Markovich,  L. A. Martinez-Martinez,  S. A. Maurer,  
 N. J. Mayhall,  S. C. McKenzie,  J.-M. Mewes,  P. Morgante,  A. F. Morrison,  
 J. W. Mullinax,  K. Nanda,  T. S. Nguyen-Beck,  R. Olivares-Amaya,  
 K. J. Oosterbaan,  J. A. Parkhill,  S. K. Paul,  F. Pavosevic,  Zheng Pei,  
 T. M. Perrine,  F. Plasser,  P. Pokhilko,  S. Prager,  A. Prociuk,  
 E. Ramos,  B. Rana,  D. R. Rehn,  F. Rob,  E. Rossomme,  M. Scheurer,  
 M. Schneider,  N. Sergueev,  S. M. Sharada,  S. Sharma,  W. Skomorowski,  
 D. W. Small,  T. Stauch,  C. J. Stein,  T. Stein,  Yu-Chuan Su,  
 S. P. Veccham,  Zhen Tao,  A. J. W. Thom,  A. Tkatchenko,  T. Tsuchimochi,  
 N. M. Tubman,  L. Vogt,  M. L. Vidal,  O. Vydrov,  M. A. Watson,  J. Wenzel,  
 M. de Wergifosse,  T. A. Wesolowski,  A. White,  J. Witte,  A. Yamada,  
 Jun Yang,  K. Yao,  S. Yeganeh,  S. R. Yost,  Zhi-Qiang You,  A. Zech,  
 Igor Ying Zhang,  Xing Zhang,  Yan Zhao,  Ying Zhu,  B. R. Brooks,  
 G. K. L. Chan,  C. J. Cramer,  M. S. Gordon,  W. J. Hehre,  A. Klamt,  
 M. W. Schmidt,  C. D. Sherrill,  D. G. Truhlar,  A. Aspuru-Guzik,  R. Baer,  
 A. T. Bell,  N. A. Besley,  Jeng-Da Chai,  A. E. DePrince, III,  
 R. A. DiStasio Jr.,  A. Dreuw,  B. D. Dunietz,  T. R. Furlani,  
 Chao-Ping Hsu,  Yousung Jung,  Jing Kong,  D. S. Lambrecht,  WanZhen Liang,  
 C. Ochsenfeld,  V. A. Rassolov,  L. V. Slipchenko,  J. E. Subotnik,  
 T. Van Voorhis,  J. M. Herbert,  A. I. Krylov,  P. M. W. Gill,  M. Head-Gordon

 Contributors to earlier versions of Q-Chem not listed above: 
 R. D. Adamson,  B. Austin,  J. Baker,  G. J. O. Beran,  K. Brandhorst,  
 S. T. Brown,  E. F. C. Byrd,  A. K. Chakraborty,  C.-L. Cheng,  
 Siu Hung Chien,  D. M. Chipman,  D. L. Crittenden,  H. Dachsel,  
 R. J. Doerksen,  A. D. Dutoi,  L. Fusti-Molnar,  W. A. Goddard III,  
 A. Golubeva-Zadorozhnaya,  S. R. Gwaltney,  G. Hawkins,  A. Heyden,  
 S. Hirata,  G. Kedziora,  F. J. Keil,  C. Kelley,  Jihan Kim,  R. A. King,  
 R. Z. Khaliullin,  P. P. Korambath,  W. Kurlancheek,  A. M. Lee,  M. S. Lee,  
 S. V. Levchenko,  Ching Yeh Lin,  D. Liotard,  R. C. Lochan,  I. Lotan,  
 P. E. Maslen,  N. Nair,  D. P. O'Neill,  D. Neuhauser,  E. Neuscamman,  
 C. M. Oana,  R. Olson,  B. Peters,  R. Peverati,  P. A. Pieniazek,  
 Y. M. Rhee,  J. Ritchie,  M. A. Rohrdanz,  E. Rosta,  N. J. Russ,  
 H. F. Schaefer III,  N. E. Schultz,  N. Shenvi,  A. C. Simmonett,  A. Sodt,  
 D. Stuck,  K. S. Thanthiriwatte,  V. Vanovschi,  Tao Wang,  A. Warshel,  
 C. F. Williams,  Q. Wu,  X. Xu,  W. Zhang

 Please cite Q-Chem as follows:
 Y. Shao et al., Mol. Phys. 113, 184-215 (2015)
 DOI: 10.1080/00268976.2014.952696

 Q-Chem 5.3.1 for Intel X86 EM64T Linux

 Parts of Q-Chem use Armadillo 9.800.1 (Horizon Scraper).
 http://arma.sourceforge.net/

 Q-Chem begins on Wed Jun  9 08:08:50 2021  

Host: 
0

     Scratch files written to /scratch/scaparas/job_3318598/qchem9745//
 Aug2920 |scratch|qcdevops|jenkins|workspace|build_RNUM    
Processing $rem in /cm/shared/apps/spack/cpu/opt/spack/linux-centos8-zen2/gcc-10.2.0/qchem-5.3-5qddma6gy34jvefiv7mbcb7qm253n45r/config/preferences:
Processing $rem in /home/scaparas/.qchemrc:

Checking the input file for inconsistencies... 	...done.

--------------------------------------------------------------
User input:
--------------------------------------------------------------
$molecule
0 1
C         2.1665374654   -0.6554056232    0.0000000000
C         2.1169746126    0.7536230414    0.0000000000
C         0.9078293763    1.4297941068    0.0000000000
C        -0.2602955279    0.6603427264    0.0000000000
N        -1.5823227859    1.0465645945    0.0000000000
H        -1.9138448994    1.9970952131    0.0000000000
C        -2.3831006726   -0.0753467300    0.0000000000
C        -1.6031102305   -1.1965127142    0.0000000000
C        -0.2354025284   -0.7544080528    0.0000000000
C         1.0061117308   -1.4110304737    0.0000000000
H         3.1323502333   -1.1522732729    0.0000000000
H         3.0445811710    1.3187694778    0.0000000000
H         0.8711978004    2.5159935936    0.0000000000
H        -3.4599415153    0.0224367365    0.0000000000
H        -1.9589772753   -2.2174458375    0.0000000000
H         1.0526344532   -2.4968312448    0.0000000000
$end

$rem
BASIS  =  6-31+G*
GUI  =  2
JOB_TYPE  =  Optimization
METHOD  = wB97X
SCF_CONVERGENCE  =  8
THRESH = 12
CIS_N_ROOTS  = 3
CIS_SINGLETS = true
CIS_TRIPLETS = false
CIS_STATE_DERIV = 2
$end
--------------------------------------------------------------
 ----------------------------------------------------------------
             Standard Nuclear Orientation (Angstroms)
    I     Atom           X                Y                Z
 ----------------------------------------------------------------
    1      C       2.1545809193    -0.6917179572    -0.0000000000
    2      C       2.1305971189     0.7179781205     0.0000000000
    3      C       0.9339220871     1.4159812583     0.0000000000
    4      C      -0.2479743579     0.6678555924     0.0000000000
    5      N      -1.5627747859     1.0780058536     0.0000000000
    6      H      -1.8769921819     2.0343963579     0.0000000000
    7      C      -2.3837811130    -0.0291882824    -0.0000000000
    8      C      -1.6242659160    -1.1643248026    -0.0000000000
    9      C      -0.2487601923    -0.7471139518    -0.0000000000
   10      C       0.9806332983    -1.4261590938    -0.0000000000
   11      H       3.1112175340    -1.2060312385    -0.0000000000
   12      H       3.0683071256     1.2661973878     0.0000000000
   13      H       0.9170087673     2.5026666484     0.0000000000
   14      H      -3.4586700515     0.0881214642    -0.0000000000
   15      H      -1.9986021312    -2.1786315579    -0.0000000000
   16      H       1.0074433715    -2.5126253373    -0.0000000000
 ----------------------------------------------------------------
 Molecular Point Group                 Cs    NOp =  2
 Largest Abelian Subgroup              Cs    NOp =  2
 Nuclear Repulsion Energy =         400.72813817 hartrees
 There are       31 alpha and       31 beta electrons
 Requested basis set is 6-31+G(d)
 There are 59 shells and 185 basis functions

 Total QAlloc Memory Limit   8000 MB
 Mega-Array Size       188 MB
 MEM_STATIC part       192 MB
 A cutoff of  1.0D-12 yielded   1657 shell pairs
 There are     17105 function pairs
 Smallest overlap matrix eigenvalue = 1.29E-06

 Scale SEOQF with 1.000000e-01/1.000000e-01/1.000000e-01

 Standard Electronic Orientation quadrupole field applied
 Nucleus-field energy     =     0.0000000117 hartrees
 Guess from superposition of atomic densities
 Warning:  Energy on first SCF cycle will be non-variational
 SAD guess density has 62.000000 electrons

 -----------------------------------------------------------------------
  General SCF calculation program by
  Eric Jon Sundstrom, Paul Horn, Yuezhi Mao, Dmitri Zuev, Alec White,
  David Stuck, Shaama M.S., Shane Yost, Joonho Lee, David Small,
  Daniel Levine, Susi Lehtola, Hugh Burton, Evgeny Epifanovsky,
  Bang C. Huynh
 -----------------------------------------------------------------------
 Exchange:     0.1577 Hartree-Fock + 1.0000 wB97X + LR-HF
 Correlation:  1.0000 wB97X
 Using SG-2 standard quadrature grid
 using 4 threads for integral computing
 -------------------------------------------------------
 OpenMP Integral computing Module                
 Release: version 1.0, May 2013, Q-Chem Inc. Pittsburgh 
 -------------------------------------------------------
 using 4 threads for integral computing
 -------------------------------------------------------
 OpenMP Integral computing Module                
 Release: version 1.0, May 2013, Q-Chem Inc. Pittsburgh 
 -------------------------------------------------------
 A restricted SCF calculation will be
 performed using DIIS
 SCF converges when DIIS error is below 1.0e-08
 ---------------------------------------
  Cycle       Energy         DIIS error
 ---------------------------------------
    1    -366.9332827568      5.50e-02  
    2    -363.6647234496      3.27e-03  
    3    -363.7026511120      2.23e-03  
    4    -363.7232945566      5.58e-04  
    5    -363.7245278578      2.64e-04  
    6    -363.7248227039      3.59e-05  
    7    -363.7248319799      1.78e-05  
    8    -363.7248345771      5.34e-06  
    9    -363.7248351054      1.62e-06  
   10    -363.7248351663      1.03e-06  
   11    -363.7248351805      3.25e-07  
   12    -363.7248351829      1.59e-07  
   13    -363.7248351832      4.62e-08  
   14    -363.7248351832      1.55e-08  
   15    -363.7248351832      7.86e-09  Convergence criterion met
 ---------------------------------------
 SCF time:   CPU 86.78s  wall 21.00s 
 SCF   energy in the final basis set =     -363.7248351832
 Total energy in the final basis set =     -363.7248351832
 
 Direct TDDFT/TDA calculation will be performed
 Exchange:     0.1577 Hartree-Fock + 1.0000 wB97X + LR-HF
 Correlation:  1.0000 wB97X
 Using SG-2 standard quadrature grid
 Singlet excitation energies requested
 CIS energy converged when residual is below 10e- 6
 ---------------------------------------------------
 Iter    Rts Conv    Rts Left    Ttl Dev     Max Dev
 ---------------------------------------------------
   1         0           3      0.003725    0.001714
   2         0           3      0.001169    0.000534
   3         0           3      0.000749    0.000364
   4         0           3      0.000427    0.000183
   5         0           3      0.000173    0.000080
   6         0           3      0.000076    0.000032
   7         0           3      0.000035    0.000013
   8         0           3      0.000016    0.000005
   9         0           3      0.000006    0.000003
  10         2           1      0.000003    0.000001
  11         3           0      0.000002    0.000001    Roots Converged
 ---------------------------------------------------
 
 ---------------------------------------------------
         TDDFT/TDA Excitation Energies              
 ---------------------------------------------------

 Excited state   1: excitation energy (eV) =    5.2647
 Total energy for state  1:                  -363.53135951 au
    Multiplicity: Singlet
    Trans. Mom.:  0.4181 X   0.3094 Y   0.0000 Z
    Strength   :     0.0348943855
    D(   30) --> V(    1) amplitude =  0.7950
    D(   31) --> V(    5) amplitude = -0.5348

 Excited state   2: excitation energy (eV) =    5.4557
 Total energy for state  2:                  -363.52434224 au
    Multiplicity: Singlet
    Trans. Mom.:  0.7610 X  -0.6788 Y   0.0000 Z
    Strength   :     0.1389997227
    D(   30) --> V(    5) amplitude =  0.3602
    D(   31) --> V(    1) amplitude =  0.9037

 Excited state   3: excitation energy (eV) =    6.0213
 Total energy for state  3:                  -363.50355653 au
    Multiplicity: Singlet
    Trans. Mom.: -0.0000 X  -0.0000 Y  -0.1943 Z
    Strength   :     0.0055704092
    D(   31) --> V(    2) amplitude =  0.9204
 
 ---------------------------------------------------
 Calculating Relaxed Density
 ---------------------------------------------------
 Iter    Rts Conv    Rts Left    Ttl Dev     Max Dev
 ---------------------------------------------------
   1         0           3      0.000794    0.000350
   2         0           3      0.000333    0.000161
   3         0           3      0.000124    0.000051
   4         0           3      0.000040    0.000015
   5         0           3      0.000015    0.000006
   6         0           3      0.000005    0.000003
   7         3           0      0.000000    0.000000    Roots Converged
 ---------------------------------------------------
  SETman timing summary (seconds)
  CPU time               293.17s
  System time              0.00s
  Wall time               73.73s
 
 --------------------------------------------------------------
             Orbital Energies (a.u.) and Symmetries
 --------------------------------------------------------------
 
 Alpha MOs, Restricted
 -- Occupied --                  
-14.462 -10.309 -10.306 -10.277 -10.272 -10.272 -10.271 -10.266
  1 A'    2 A'    3 A'    4 A'    5 A'    6 A'    7 A'    8 A'                 
-10.262  -1.117  -0.974  -0.915  -0.866  -0.847  -0.748  -0.716
  9 A'   10 A'   11 A'   12 A'   13 A'   14 A'   15 A'   16 A'                 
 -0.703  -0.658  -0.596  -0.585  -0.546  -0.541  -0.539  -0.519
 17 A'   18 A'   19 A'   20 A'   21 A'    1 A"   22 A'   23 A'                 
 -0.498  -0.458  -0.447  -0.437  -0.381  -0.312  -0.294
 24 A'   25 A'    2 A"   26 A'    3 A"    4 A"    5 A"                         
 -- Virtual --                   
  0.059   0.066   0.084   0.088   0.098   0.101   0.105   0.120
  6 A"   27 A'   28 A'   29 A'    7 A"   30 A'   31 A'    8 A"                 
  0.126   0.129   0.132   0.135   0.154   0.161   0.168   0.170
 32 A'   33 A'    9 A"   34 A'   10 A"   11 A"   35 A'   36 A'                 
  0.180   0.195   0.209   0.209   0.222   0.226   0.234   0.240
 37 A'   12 A"   13 A"   38 A'   39 A'   14 A"   40 A'   15 A"                 
  0.240   0.254   0.257   0.260   0.266   0.272   0.278   0.289
 41 A'   42 A'   43 A'   16 A"   44 A'   45 A'   46 A'   47 A'                 
  0.290   0.299   0.304   0.308   0.315   0.316   0.328   0.334
 17 A"   48 A'   49 A'   50 A'   18 A"   51 A'   52 A'   53 A'                 
  0.345   0.347   0.363   0.375   0.390   0.400   0.401   0.417
 54 A'   55 A'   56 A'   57 A'   58 A'   59 A'   60 A'   61 A'                 
  0.437   0.460   0.470   0.494   0.541   0.549   0.617   0.687
 62 A'   63 A'   64 A'   65 A'   66 A'   67 A'   68 A'   69 A'                 
  0.734   0.777   0.780   0.803   0.822   0.825   0.839   0.841
 70 A'   19 A"   71 A'   20 A"   72 A'   21 A"   73 A'   22 A"                 
  0.850   0.857   0.865   0.882   0.897   0.908   0.924   0.959
 74 A'   23 A"   75 A'   24 A"   25 A"   76 A'   77 A'   26 A"                 
  1.002   1.011   1.022   1.044   1.051   1.060   1.070   1.092
 78 A'   79 A'   80 A'   81 A'   82 A'   83 A'   27 A"   84 A'                 
  1.112   1.138   1.155   1.174   1.201   1.221   1.227   1.279
 85 A'   86 A'   87 A'   88 A'   89 A'   90 A'   91 A'   92 A'                 
  1.288   1.313   1.332   1.342   1.363   1.428   1.429   1.449
 93 A'   94 A'   95 A'   28 A"   96 A'   97 A'   29 A"   30 A"                 
  1.476   1.524   1.524   1.559   1.570   1.575   1.606   1.612
 98 A'   31 A"   99 A'  100 A'   32 A"   33 A"   34 A"   35 A"                 
  1.650   1.698   1.759   1.898   1.954   1.993   2.001   2.031
101 A'  102 A'  103 A'  104 A'  105 A'  106 A'   36 A"  107 A'                 
  2.049   2.103   2.105   2.116   2.176   2.210   2.250   2.283
108 A'  109 A'  110 A'   37 A"  111 A'  112 A'  113 A'  114 A'                 
  2.287   2.306   2.360   2.370   2.376   2.395   2.422   2.493
 38 A"  115 A'   39 A"   40 A"   41 A"  116 A'  117 A'   42 A"                 
  2.518   2.555   2.658   2.671   2.747   2.768   2.779   2.811
 43 A"  118 A'  119 A'   44 A"  120 A'  121 A'   45 A"  122 A'                 
  2.850   2.921   2.957   2.970   3.064   3.090   3.223   3.356
123 A'  124 A'  125 A'  126 A'  127 A'  128 A'  129 A'  130 A'                 
  3.555   4.269   4.380   4.412   4.447   4.482   4.519   4.602
131 A'  132 A'  133 A'  134 A'  135 A'  136 A'  137 A'  138 A'                 
  4.642   4.909
139 A'  140 A'                                                                 
 
 Beta MOs, Restricted
 -- Occupied --                  
-14.462 -10.309 -10.306 -10.277 -10.272 -10.272 -10.271 -10.266
  1 A'    2 A'    3 A'    4 A'    5 A'    6 A'    7 A'    8 A'                 
-10.262  -1.117  -0.974  -0.915  -0.866  -0.847  -0.748  -0.716
  9 A'   10 A'   11 A'   12 A'   13 A'   14 A'   15 A'   16 A'                 
 -0.703  -0.658  -0.596  -0.585  -0.546  -0.541  -0.539  -0.519
 17 A'   18 A'   19 A'   20 A'   21 A'    1 A"   22 A'   23 A'                 
 -0.498  -0.458  -0.447  -0.437  -0.381  -0.312  -0.294
 24 A'   25 A'    2 A"   26 A'    3 A"    4 A"    5 A"                         
 -- Virtual --                   
  0.059   0.066   0.084   0.088   0.098   0.101   0.105   0.120
  6 A"   27 A'   28 A'   29 A'    7 A"   30 A'   31 A'    8 A"                 
  0.126   0.129   0.132   0.135   0.154   0.161   0.168   0.170
 32 A'   33 A'    9 A"   34 A'   10 A"   11 A"   35 A'   36 A'                 
  0.180   0.195   0.209   0.209   0.222   0.226   0.234   0.240
 37 A'   12 A"   13 A"   38 A'   39 A'   14 A"   40 A'   15 A"                 
  0.240   0.254   0.257   0.260   0.266   0.272   0.278   0.289
 41 A'   42 A'   43 A'   16 A"   44 A'   45 A'   46 A'   47 A'                 
  0.290   0.299   0.304   0.308   0.315   0.316   0.328   0.334
 17 A"   48 A'   49 A'   50 A'   18 A"   51 A'   52 A'   53 A'                 
  0.345   0.347   0.363   0.375   0.390   0.400   0.401   0.417
 54 A'   55 A'   56 A'   57 A'   58 A'   59 A'   60 A'   61 A'                 
  0.437   0.460   0.470   0.494   0.541   0.549   0.617   0.687
 62 A'   63 A'   64 A'   65 A'   66 A'   67 A'   68 A'   69 A'                 
  0.734   0.777   0.780   0.803   0.822   0.825   0.839   0.841
 70 A'   19 A"   71 A'   20 A"   72 A'   21 A"   73 A'   22 A"                 
  0.850   0.857   0.865   0.882   0.897   0.908   0.924   0.959
 74 A'   23 A"   75 A'   24 A"   25 A"   76 A'   77 A'   26 A"                 
  1.002   1.011   1.022   1.044   1.051   1.060   1.070   1.092
 78 A'   79 A'   80 A'   81 A'   82 A'   83 A'   27 A"   84 A'                 
  1.112   1.138   1.155   1.174   1.201   1.221   1.227   1.279
 85 A'   86 A'   87 A'   88 A'   89 A'   90 A'   91 A'   92 A'                 
  1.288   1.313   1.332   1.342   1.363   1.428   1.429   1.449
 93 A'   94 A'   95 A'   28 A"   96 A'   97 A'   29 A"   30 A"                 
  1.476   1.524   1.524   1.559   1.570   1.575   1.606   1.612
 98 A'   31 A"   99 A'  100 A'   32 A"   33 A"   34 A"   35 A"                 
  1.650   1.698   1.759   1.898   1.954   1.993   2.001   2.031
101 A'  102 A'  103 A'  104 A'  105 A'  106 A'   36 A"  107 A'                 
  2.049   2.103   2.105   2.116   2.176   2.210   2.250   2.283
108 A'  109 A'  110 A'   37 A"  111 A'  112 A'  113 A'  114 A'                 
  2.287   2.306   2.360   2.370   2.376   2.395   2.422   2.493
 38 A"  115 A'   39 A"   40 A"   41 A"  116 A'  117 A'   42 A"                 
  2.518   2.555   2.658   2.671   2.747   2.768   2.779   2.811
 43 A"  118 A'  119 A'   44 A"  120 A'  121 A'   45 A"  122 A'                 
  2.850   2.921   2.957   2.970   3.064   3.090   3.223   3.356
123 A'  124 A'  125 A'  126 A'  127 A'  128 A'  129 A'  130 A'                 
  3.555   4.269   4.380   4.412   4.447   4.482   4.519   4.602
131 A'  132 A'  133 A'  134 A'  135 A'  136 A'  137 A'  138 A'                 
  4.642   4.909
139 A'  140 A'                                                                 
 --------------------------------------------------------------
 
          Ground-State Mulliken Net Atomic Charges

     Atom                 Charge (a.u.)
  ----------------------------------------
      1 C                    -0.048337
      2 C                    -0.441692
      3 C                    -0.083633
      4 C                    -0.707873
      5 N                    -0.564391
      6 H                     0.430168
      7 C                    -0.246265
      8 C                     0.094526
      9 C                     0.873317
     10 C                    -0.536085
     11 H                     0.196175
     12 H                     0.197313
     13 H                     0.202035
     14 H                     0.215347
     15 H                     0.214682
     16 H                     0.204712
  ----------------------------------------
  Sum of atomic charges =     0.000000

 -----------------------------------------------------------------
                    Cartesian Multipole Moments
 -----------------------------------------------------------------
    Charge (ESU x 10^10)
                -0.0000
    Dipole Moment (Debye)
         X      -1.4732      Y       1.5749      Z      -0.0000
       Tot       2.1565
    Quadrupole Moments (Debye-Ang)
        XX     -44.9128     XY      -3.1876     YY     -44.1017
        XZ       0.0000     YZ       0.0000     ZZ     -58.7842
    Octopole Moments (Debye-Ang^2)
       XXX     -14.7939    XXY       8.3882    XYY      -7.8666
       YYY      10.5059    XXZ      -0.0000    XYZ       0.0000
       YYZ       0.0000    XZZ      -2.0103    YZZ       2.0249
       ZZZ      -0.0000
    Hexadecapole Moments (Debye-Ang^3)
      XXXX    -806.5448   XXXY     -21.7902   XXYY    -194.6658
      XYYY     -19.6933   YYYY    -365.1745   XXXZ       0.0000
      XXYZ       0.0000   XYYZ      -0.0000   YYYZ      -0.0000
      XXZZ    -188.2887   XYZZ      -3.9099   YYZZ     -93.1607
      XZZZ      -0.0000   YZZZ      -0.0000   ZZZZ     -71.7769
 -----------------------------------------------------------------
 Calculating analytic gradient of the CIS energy
 CIS relaxed dipole moment
            1
    1  -1.6203629
    2   0.5926455
    3  -0.0000000
	Magnitude:	 1.725 au	 4.385 Debye
 CIS 2 State Energy is -363.5243422361
 Gradient of the state energy (including CIS Excitation Energy)
            1           2           3           4           5           6
    1  -0.0237289  -0.0383710   0.0427215  -0.0173836   0.0202531   0.0016032
    2  -0.0305276   0.0386177  -0.0277621   0.0016908   0.0203305  -0.0024658
    3  -0.0000000   0.0000000  -0.0000000  -0.0000000  -0.0000000   0.0000000
            7           8           9          10          11          12
    1   0.0259765  -0.0457590   0.0256399   0.0077075  -0.0004643  -0.0005570
    2  -0.0508699   0.0185925   0.0009224   0.0315707  -0.0002543  -0.0000633
    3   0.0000000  -0.0000000   0.0000000  -0.0000000  -0.0000000   0.0000000
           13          14          15          16
    1   0.0006526   0.0006733   0.0007627   0.0002735
    2  -0.0004834  -0.0004501   0.0006313   0.0005204
    3   0.0000000   0.0000000  -0.0000000  -0.0000000
 Gradient time:  CPU 48.28 s  wall 12.20 s
 Geometry Optimization Parameters
   NAtoms,    NIC,     NZ,  NCons,   NDum,   NFix, NCnnct, MaxDiis
       16     116       0       0       0       0       0       0


** GEOMETRY OPTIMIZATION IN DELOCALIZED INTERNAL COORDINATES **
   Searching for a Minimum

   Optimization Cycle:   1

                       Coordinates (Angstroms)
     ATOM                X               Y               Z
      1  C         2.1545809193   -0.6917179572    0.0000000000
      2  C         2.1305971189    0.7179781205    0.0000000000
      3  C         0.9339220871    1.4159812583    0.0000000000
      4  C        -0.2479743579    0.6678555924    0.0000000000
      5  N        -1.5627747859    1.0780058536    0.0000000000
      6  H        -1.8769921819    2.0343963579    0.0000000000
      7  C        -2.3837811130   -0.0291882824    0.0000000000
      8  C        -1.6242659160   -1.1643248026    0.0000000000
      9  C        -0.2487601923   -0.7471139518    0.0000000000
     10  C         0.9806332983   -1.4261590938    0.0000000000
     11  H         3.1112175340   -1.2060312385    0.0000000000
     12  H         3.0683071256    1.2661973878    0.0000000000
     13  H         0.9170087673    2.5026666484    0.0000000000
     14  H        -3.4586700515    0.0881214642    0.0000000000
     15  H        -1.9986021312   -2.1786315579    0.0000000000
     16  H         1.0074433715   -2.5126253373    0.0000000000
   Point Group: cs    Number of degrees of freedom:    29


   Energy is   -363.524342236


 Attempting to generate delocalized internal coordinates
 Initial Hessian constructed with Jon Baker's OPTIMIZE code

 29 Hessian modes will be used to form the next step
  Hessian Eigenvalues:
     0.160000    0.160000    0.160000    0.160000    0.160000    0.160000
     0.160000    0.220000    0.221874    0.226615    0.240154    0.246535
     0.351831    0.351854    0.352547    0.352641    0.358411    0.358524
     0.370243    0.381736    0.421745    0.429383    0.450758    0.465320
     0.465358    0.471677    0.475377    0.478120    0.507735

 Minimum search - taking simple RFO step
 Searching for Lamda that Minimizes Along All modes
 Value Taken    Lamda =  -0.01458336
 Step Taken.  Stepsize is  0.181205

                             Maximum     Tolerance    Cnvgd?
         Gradient           0.031879      0.000300      NO
         Displacement       0.070043      0.001200      NO
         Energy change     *********      0.000001      NO


 New Cartesian Coordinates Obtained by Inverse Iteration

 Displacement from previous Coordinates is:  0.229739
 ----------------------------------------------------------------
             Standard Nuclear Orientation (Angstroms)
    I     Atom           X                Y                Z
 ----------------------------------------------------------------
    1      C       2.1876290366    -0.6939003829     0.0000000000
    2      C       2.1530555849     0.7016244350     0.0000000000
    3      C       0.9131053406     1.4255826649     0.0000000000
    4      C      -0.2558799664     0.6627279909     0.0000000000
    5      N      -1.5880853254     1.0752855808     0.0000000000
    6      H      -1.8988351923     2.0361068005     0.0000000000
    7      C      -2.4172582334     0.0014467588     0.0000000000
    8      C      -1.6097842632    -1.1519839394     0.0000000000
    9      C      -0.2479883326    -0.7568804521     0.0000000000
   10      C       0.9950848475    -1.4590698723     0.0000000000
   11      H       3.1508171091    -1.1967391013     0.0000000000
   12      H       3.0901438145     1.2523634845     0.0000000000
   13      H       0.8847886453     2.5127406999     0.0000000000
   14      H      -3.4929914004     0.1204100615     0.0000000000
   15      H      -1.9829732211    -2.1680032738     0.0000000000
   16      H       1.0210610488    -2.5463009934     0.0000000000
 ----------------------------------------------------------------
 Molecular Point Group                 Cs    NOp =  2
 Largest Abelian Subgroup              Cs    NOp =  2
 Nuclear Repulsion Energy =         397.96450127 hartrees
 There are       31 alpha and       31 beta electrons
 Applying Cartesian multipole field
    Component          Value
    ---------          -----
     (2,0,0)        1.00000E-11
     (0,2,0)        2.00000E-11
     (0,0,2)       -3.00000E-11
 Nucleus-field energy     =     0.0000000119 hartrees
 Requested basis set is 6-31+G(d)
 There are 59 shells and 185 basis functions
 A cutoff of  1.0D-12 yielded   1657 shell pairs
 There are     17105 function pairs
 Smallest overlap matrix eigenvalue = 1.30E-06
 Guess MOs from SCF MO coefficient file

 -----------------------------------------------------------------------
  General SCF calculation program by
  Eric Jon Sundstrom, Paul Horn, Yuezhi Mao, Dmitri Zuev, Alec White,
  David Stuck, Shaama M.S., Shane Yost, Joonho Lee, David Small,
  Daniel Levine, Susi Lehtola, Hugh Burton, Evgeny Epifanovsky,
  Bang C. Huynh
 -----------------------------------------------------------------------
 Exchange:     0.1577 Hartree-Fock + 1.0000 wB97X + LR-HF
 Correlation:  1.0000 wB97X
 Using SG-2 standard quadrature grid
 using 4 threads for integral computing
 -------------------------------------------------------
 OpenMP Integral computing Module                
 Release: version 1.0, May 2013, Q-Chem Inc. Pittsburgh 
 -------------------------------------------------------
 using 4 threads for integral computing
 -------------------------------------------------------
 OpenMP Integral computing Module                
 Release: version 1.0, May 2013, Q-Chem Inc. Pittsburgh 
 -------------------------------------------------------
 A restricted SCF calculation will be
 performed using DIIS
 SCF converges when DIIS error is below 1.0e-08
 ---------------------------------------
  Cycle       Energy         DIIS error
 ---------------------------------------
    1    -363.7142284644      8.58e-04  
    2    -363.7177818110      1.90e-04  
    3    -363.7180087190      1.05e-04  
    4    -363.7180703240      3.22e-05  
    5    -363.7180830803      1.65e-05  
    6    -363.7180868233      7.52e-06  
    7    -363.7180878682      2.99e-06  
    8    -363.7180880003      1.08e-06  
    9    -363.7180880171      3.05e-07  
   10    -363.7180880194      1.61e-07  
   11    -363.7180880197      5.07e-08  
   12    -363.7180880197      2.09e-08  
   13    -363.7180880197      1.09e-08  
   14    -363.7180880197      2.69e-09  Convergence criterion met
 ---------------------------------------
 SCF time:   CPU 77.90s  wall 19.00s 
 SCF   energy in the final basis set =     -363.7180880197
 Total energy in the final basis set =     -363.7180880197
 
 Direct TDDFT/TDA calculation will be performed
 Exchange:     0.1577 Hartree-Fock + 1.0000 wB97X + LR-HF
 Correlation:  1.0000 wB97X
 Using SG-2 standard quadrature grid
 Singlet excitation energies requested
 CIS energy converged when residual is below 10e- 6
 ---------------------------------------------------
 Iter    Rts Conv    Rts Left    Ttl Dev     Max Dev
 ---------------------------------------------------
   1         0           3      0.002561    0.001759
   2         0           3      0.000702    0.000415
   3         0           3      0.000412    0.000224
   4         0           3      0.000300    0.000110
   5         0           3      0.000137    0.000062
   6         0           3      0.000096    0.000054
   7         0           3      0.001228    0.001194
   8         0           3      0.000702    0.000649
   9         0           3      0.000349    0.000299
  10         1           2      0.000136    0.000113
  11         1           2      0.000064    0.000052
  12         1           2      0.000021    0.000017
  13         1           2      0.000008    0.000006
  14         2           1      0.000004    0.000003
  15         3           0      0.000001    0.000001    Roots Converged
 ---------------------------------------------------
 
 ---------------------------------------------------
         TDDFT/TDA Excitation Energies              
 ---------------------------------------------------

 Excited state   1: excitation energy (eV) =    5.0388
 Total energy for state  1:                  -363.53291592 au
    Multiplicity: Singlet
    Trans. Mom.:  1.0216 X  -0.7571 Y  -0.0000 Z
    Strength   :     0.1995945740
    D(   30) --> V(    5) amplitude =  0.2642
    D(   31) --> V(    1) amplitude =  0.9008

 Excited state   2: excitation energy (eV) =    5.1349
 Total energy for state  2:                  -363.52938539 au
    Multiplicity: Singlet
    Trans. Mom.:  0.0179 X   0.4322 Y   0.0000 Z
    Strength   :     0.0235343447
    D(   30) --> V(    1) amplitude =  0.7428
    D(   31) --> V(    1) amplitude = -0.2459
    D(   31) --> V(    5) amplitude = -0.5514

 Excited state   3: excitation energy (eV) =    5.7553
 Total energy for state  3:                  -363.50658447 au
    Multiplicity: Singlet
    Trans. Mom.:  0.0000 X  -0.0000 Y  -0.2132 Z
    Strength   :     0.0064098295
    D(   31) --> V(    2) amplitude =  0.9267
 
 ---------------------------------------------------
 Calculating Relaxed Density
 ---------------------------------------------------
 Iter    Rts Conv    Rts Left    Ttl Dev     Max Dev
 ---------------------------------------------------
   1         0           3      0.000860    0.000387
   2         0           3      0.000349    0.000177
   3         0           3      0.000124    0.000051
   4         0           3      0.000040    0.000015
   5         0           3      0.000015    0.000006
   6         0           3      0.000005    0.000002
   7         3           0      0.000000    0.000000    Roots Converged
 ---------------------------------------------------
  SETman timing summary (seconds)
  CPU time               327.69s
  System time              0.00s
  Wall time               82.36s
 
 --------------------------------------------------------------
             Orbital Energies (a.u.) and Symmetries
 --------------------------------------------------------------
 
 Alpha MOs, Restricted
 -- Occupied --                  
-14.465 -10.314 -10.309 -10.284 -10.279 -10.277 -10.275 -10.272
  1 A'    2 A'    3 A'    4 A'    5 A'    6 A'    7 A'    8 A'                 
-10.262  -1.118  -0.970  -0.910  -0.869  -0.839  -0.750  -0.717
  9 A'   10 A'   11 A'   12 A'   13 A'   14 A'   15 A'   16 A'                 
 -0.699  -0.656  -0.597  -0.586  -0.546  -0.541  -0.540  -0.511
 17 A'   18 A'   19 A'   20 A'   21 A'    1 A"   22 A'   23 A'                 
 -0.500  -0.456  -0.444  -0.442  -0.377  -0.319  -0.284
 24 A'   25 A'    2 A"   26 A'    3 A"    4 A"    5 A"                         
 -- Virtual --                   
  0.049   0.065   0.084   0.089   0.097   0.101   0.105   0.120
  6 A"   27 A'   28 A'   29 A'    7 A"   30 A'   31 A'    8 A"                 
  0.126   0.129   0.131   0.135   0.154   0.159   0.168   0.169
 32 A'   33 A'    9 A"   34 A'   10 A"   11 A"   35 A'   36 A'                 
  0.180   0.195   0.207   0.208   0.220   0.225   0.232   0.239
 37 A'   12 A"   13 A"   38 A'   39 A'   14 A"   40 A'   15 A"                 
  0.241   0.253   0.257   0.260   0.266   0.272   0.278   0.287
 41 A'   42 A'   43 A'   16 A"   44 A'   45 A'   46 A'   17 A"                 
  0.288   0.295   0.304   0.307   0.309   0.315   0.326   0.335
 47 A'   48 A'   49 A'   50 A'   18 A"   51 A'   52 A'   53 A'                 
  0.344   0.347   0.360   0.373   0.383   0.394   0.400   0.415
 54 A'   55 A'   56 A'   57 A'   58 A'   59 A'   60 A'   61 A'                 
  0.435   0.450   0.465   0.485   0.527   0.548   0.614   0.678
 62 A'   63 A'   64 A'   65 A'   66 A'   67 A'   68 A'   69 A'                 
  0.715   0.777   0.778   0.802   0.822   0.827   0.839   0.839
 70 A'   71 A'   19 A"   20 A"   72 A'   21 A"   73 A'   22 A"                 
  0.839   0.859   0.866   0.880   0.896   0.897   0.917   0.957
 74 A'   23 A"   75 A'   24 A"   25 A"   76 A'   77 A'   26 A"                 
  0.997   1.005   1.016   1.050   1.053   1.061   1.069   1.096
 78 A'   79 A'   80 A'   81 A'   82 A'   83 A'   27 A"   84 A'                 
  1.105   1.136   1.154   1.170   1.196   1.218   1.227   1.279
 85 A'   86 A'   87 A'   88 A'   89 A'   90 A'   91 A'   92 A'                 
  1.281   1.313   1.327   1.342   1.355   1.425   1.427   1.450
 93 A'   94 A'   95 A'   28 A"   96 A'   97 A'   29 A"   30 A"                 
  1.468   1.514   1.516   1.551   1.574   1.578   1.600   1.605
 98 A'   31 A"   99 A'  100 A'   32 A"   33 A"   34 A"   35 A"                 
  1.650   1.695   1.744   1.891   1.929   1.989   2.002   2.017
101 A'  102 A'  103 A'  104 A'  105 A'  106 A'   36 A"  107 A'                 
  2.043   2.097   2.104   2.108   2.145   2.176   2.237   2.258
108 A'  109 A'  110 A'   37 A"  111 A'  112 A'  113 A'  114 A'                 
  2.268   2.302   2.337   2.357   2.373   2.381   2.411   2.474
 38 A"  115 A'   39 A"   40 A"   41 A"  116 A'  117 A'   42 A"                 
  2.507   2.557   2.637   2.661   2.731   2.750   2.757   2.783
 43 A"  118 A'  119 A'   44 A"  120 A'   45 A"  121 A'  122 A'                 
  2.831   2.902   2.938   2.954   3.057   3.076   3.195   3.347
123 A'  124 A'  125 A'  126 A'  127 A'  128 A'  129 A'  130 A'                 
  3.509   4.268   4.365   4.402   4.436   4.477   4.522   4.596
131 A'  132 A'  133 A'  134 A'  135 A'  136 A'  137 A'  138 A'                 
  4.636   4.896
139 A'  140 A'                                                                 
 
 Beta MOs, Restricted
 -- Occupied --                  
-14.465 -10.314 -10.309 -10.284 -10.279 -10.277 -10.275 -10.272
  1 A'    2 A'    3 A'    4 A'    5 A'    6 A'    7 A'    8 A'                 
-10.262  -1.118  -0.970  -0.910  -0.869  -0.839  -0.750  -0.717
  9 A'   10 A'   11 A'   12 A'   13 A'   14 A'   15 A'   16 A'                 
 -0.699  -0.656  -0.597  -0.586  -0.546  -0.541  -0.540  -0.511
 17 A'   18 A'   19 A'   20 A'   21 A'    1 A"   22 A'   23 A'                 
 -0.500  -0.456  -0.444  -0.442  -0.377  -0.319  -0.284
 24 A'   25 A'    2 A"   26 A'    3 A"    4 A"    5 A"                         
 -- Virtual --                   
  0.049   0.065   0.084   0.089   0.097   0.101   0.105   0.120
  6 A"   27 A'   28 A'   29 A'    7 A"   30 A'   31 A'    8 A"                 
  0.126   0.129   0.131   0.135   0.154   0.159   0.168   0.169
 32 A'   33 A'    9 A"   34 A'   10 A"   11 A"   35 A'   36 A'                 
  0.180   0.195   0.207   0.208   0.220   0.225   0.232   0.239
 37 A'   12 A"   13 A"   38 A'   39 A'   14 A"   40 A'   15 A"                 
  0.241   0.253   0.257   0.260   0.266   0.272   0.278   0.287
 41 A'   42 A'   43 A'   16 A"   44 A'   45 A'   46 A'   17 A"                 
  0.288   0.295   0.304   0.307   0.309   0.315   0.326   0.335
 47 A'   48 A'   49 A'   50 A'   18 A"   51 A'   52 A'   53 A'                 
  0.344   0.347   0.360   0.373   0.383   0.394   0.400   0.415
 54 A'   55 A'   56 A'   57 A'   58 A'   59 A'   60 A'   61 A'                 
  0.435   0.450   0.465   0.485   0.527   0.548   0.614   0.678
 62 A'   63 A'   64 A'   65 A'   66 A'   67 A'   68 A'   69 A'                 
  0.715   0.777   0.778   0.802   0.822   0.827   0.839   0.839
 70 A'   71 A'   19 A"   20 A"   72 A'   21 A"   73 A'   22 A"                 
  0.839   0.859   0.866   0.880   0.896   0.897   0.917   0.957
 74 A'   23 A"   75 A'   24 A"   25 A"   76 A'   77 A'   26 A"                 
  0.997   1.005   1.016   1.050   1.053   1.061   1.069   1.096
 78 A'   79 A'   80 A'   81 A'   82 A'   83 A'   27 A"   84 A'                 
  1.105   1.136   1.154   1.170   1.196   1.218   1.227   1.279
 85 A'   86 A'   87 A'   88 A'   89 A'   90 A'   91 A'   92 A'                 
  1.281   1.313   1.327   1.342   1.355   1.425   1.427   1.450
 93 A'   94 A'   95 A'   28 A"   96 A'   97 A'   29 A"   30 A"                 
  1.468   1.514   1.516   1.551   1.574   1.578   1.600   1.605
 98 A'   31 A"   99 A'  100 A'   32 A"   33 A"   34 A"   35 A"                 
  1.650   1.695   1.744   1.891   1.929   1.989   2.002   2.017
101 A'  102 A'  103 A'  104 A'  105 A'  106 A'   36 A"  107 A'                 
  2.043   2.097   2.104   2.108   2.145   2.176   2.237   2.258
108 A'  109 A'  110 A'   37 A"  111 A'  112 A'  113 A'  114 A'                 
  2.268   2.302   2.337   2.357   2.373   2.381   2.411   2.474
 38 A"  115 A'   39 A"   40 A"   41 A"  116 A'  117 A'   42 A"                 
  2.507   2.557   2.637   2.661   2.731   2.750   2.757   2.783
 43 A"  118 A'  119 A'   44 A"  120 A'   45 A"  121 A'  122 A'                 
  2.831   2.902   2.938   2.954   3.057   3.076   3.195   3.347
123 A'  124 A'  125 A'  126 A'  127 A'  128 A'  129 A'  130 A'                 
  3.509   4.268   4.365   4.402   4.436   4.477   4.522   4.596
131 A'  132 A'  133 A'  134 A'  135 A'  136 A'  137 A'  138 A'                 
  4.636   4.896
139 A'  140 A'                                                                 
 --------------------------------------------------------------
 
          Ground-State Mulliken Net Atomic Charges

     Atom                 Charge (a.u.)
  ----------------------------------------
      1 C                    -0.066518
      2 C                    -0.406760
      3 C                    -0.177805
      4 C                    -0.721211
      5 N                    -0.542018
      6 H                     0.430441
      7 C                    -0.218593
      8 C                    -0.011754
      9 C                     0.937556
     10 C                    -0.460965
     11 H                     0.198222
     12 H                     0.197396
     13 H                     0.203478
     14 H                     0.220864
     15 H                     0.209599
     16 H                     0.208066
  ----------------------------------------
  Sum of atomic charges =     0.000000

 -----------------------------------------------------------------
                    Cartesian Multipole Moments
 -----------------------------------------------------------------
    Charge (ESU x 10^10)
                 0.0000
    Dipole Moment (Debye)
         X      -1.4963      Y       1.6978      Z       0.0000
       Tot       2.2631
    Quadrupole Moments (Debye-Ang)
        XX     -44.5009     XY      -3.7900     YY     -44.2575
        XZ      -0.0000     YZ       0.0000     ZZ     -59.1617
    Octopole Moments (Debye-Ang^2)
       XXX     -15.7825    XXY       9.2917    XYY      -7.4881
       YYY      11.2015    XXZ       0.0000    XYZ       0.0000
       YYZ      -0.0000    XZZ      -2.1156    YZZ       2.2739
       ZZZ      -0.0000
    Hexadecapole Moments (Debye-Ang^3)
      XXXX    -811.9212   XXXY     -21.9236   XXYY    -198.9405
      XYYY     -17.5349   YYYY    -367.8216   XXXZ      -0.0000
      XXYZ      -0.0000   XYYZ       0.0000   YYYZ       0.0000
      XXZZ    -192.3994   XYZZ      -2.7131   YYZZ     -94.5350
      XZZZ       0.0000   YZZZ       0.0000   ZZZZ     -73.0598
 -----------------------------------------------------------------
 Calculating analytic gradient of the CIS energy
 CIS relaxed dipole moment
            1
    1  -0.8054995
    2   0.4936543
    3   0.0000000
	Magnitude:	 0.945 au	 2.401 Debye
 CIS 2 State Energy is -363.5293853890
 Gradient of the state energy (including CIS Excitation Energy)
            1           2           3           4           5           6
    1   0.0001113   0.0035016  -0.0135012   0.0113949  -0.0355165  -0.0026263
    2   0.0143956  -0.0298594   0.0009697  -0.0342342  -0.0175412   0.0004163
    3  -0.0000000   0.0000000   0.0000000  -0.0000000  -0.0000000   0.0000000
            7           8           9          10          11          12
    1  -0.0015566   0.0311030  -0.0112216   0.0185190   0.0005961   0.0012536
    2   0.0465413  -0.0068281   0.0263825  -0.0026484   0.0011284  -0.0006034
    3   0.0000000  -0.0000000   0.0000000   0.0000000  -0.0000000  -0.0000000
           13          14          15          16
    1  -0.0017459  -0.0011070   0.0007256   0.0000701
    2   0.0009446   0.0017428   0.0005163  -0.0013229
    3  -0.0000000  -0.0000000   0.0000000  -0.0000000
 Gradient time:  CPU 46.66 s  wall 11.73 s
 Geometry Optimization Parameters
   NAtoms,    NIC,     NZ,  NCons,   NDum,   NFix, NCnnct, MaxDiis
       16     116       0       0       0       0       0       0

 Cartesian Hessian Update
 Hessian updated using BFGS update


** GEOMETRY OPTIMIZATION IN DELOCALIZED INTERNAL COORDINATES **
   Searching for a Minimum

   Optimization Cycle:   2

                       Coordinates (Angstroms)
     ATOM                X               Y               Z
      1  C         2.1876290366   -0.6939003829    0.0000000000
      2  C         2.1530555849    0.7016244350    0.0000000000
      3  C         0.9131053406    1.4255826649    0.0000000000
      4  C        -0.2558799664    0.6627279909    0.0000000000
      5  N        -1.5880853254    1.0752855808    0.0000000000
      6  H        -1.8988351923    2.0361068005    0.0000000000
      7  C        -2.4172582334    0.0014467588    0.0000000000
      8  C        -1.6097842632   -1.1519839394    0.0000000000
      9  C        -0.2479883326   -0.7568804521    0.0000000000
     10  C         0.9950848475   -1.4590698723    0.0000000000
     11  H         3.1508171091   -1.1967391013    0.0000000000
     12  H         3.0901438145    1.2523634845    0.0000000000
     13  H         0.8847886453    2.5127406999    0.0000000000
     14  H        -3.4929914004    0.1204100615    0.0000000000
     15  H        -1.9829732211   -2.1680032738    0.0000000000
     16  H         1.0210610488   -2.5463009934    0.0000000000
   Point Group: cs    Number of degrees of freedom:    29


   Energy is   -363.529385389

 Hessian updated using BFGS update

 24 Hessian modes will be used to form the next step
  Hessian Eigenvalues:
     0.159807    0.160284    0.210807    0.222165    0.226765    0.245926
     0.248336    0.351628    0.351838    0.352539    0.352616    0.355689
     0.358438    0.359979    0.374679    0.389392    0.423546    0.443849
     0.450876    0.465325    0.465515    0.473038    0.490078    0.984665

 Minimum search - taking simple RFO step
 Searching for Lamda that Minimizes Along All modes
 Value Taken    Lamda =  -0.00589642
 Step Taken.  Stepsize is  0.094347

                             Maximum     Tolerance    Cnvgd?
         Gradient           0.039725      0.000300      NO
         Displacement       0.060689      0.001200      NO
         Energy change     -0.005043      0.000001      NO


 New Cartesian Coordinates Obtained by Inverse Iteration

 Displacement from previous Coordinates is:  0.146044
 ----------------------------------------------------------------
             Standard Nuclear Orientation (Angstroms)
    I     Atom           X                Y                Z
 ----------------------------------------------------------------
    1      C       2.1791397308    -0.6890122868     0.0000000000
    2      C       2.1639009531     0.7206128330     0.0000000000
    3      C       0.9234427358     1.4481167942     0.0000000000
    4      C      -0.2463141281     0.6768222613     0.0000000000
    5      N      -1.5725516505     1.0725405142     0.0000000000
    6      H      -1.8800980729     2.0342093084     0.0000000000
    7      C      -2.4151205860    -0.0162201359     0.0000000000
    8      C      -1.6234066673    -1.1697199776     0.0000000000
    9      C      -0.2581471445    -0.7656203937     0.0000000000
   10      C       0.9780597225    -1.4638045253     0.0000000000
   11      H       3.1371770333    -1.2017857860     0.0000000000
   12      H       3.1024868569     1.2676491717     0.0000000000
   13      H       0.9002009411     2.5346021745     0.0000000000
   14      H      -3.4899585836     0.1018270791     0.0000000000
   15      H      -2.0016737819    -2.1848942912     0.0000000000
   16      H       1.0047521340    -2.5499122784     0.0000000000
 ----------------------------------------------------------------
 Molecular Point Group                 Cs    NOp =  2
 Largest Abelian Subgroup              Cs    NOp =  2
 Nuclear Repulsion Energy =         396.73391036 hartrees
 There are       31 alpha and       31 beta electrons
 Applying Cartesian multipole field
    Component          Value
    ---------          -----
     (2,0,0)        1.00000E-11
     (0,2,0)        2.00000E-11
     (0,0,2)       -3.00000E-11
 Nucleus-field energy     =     0.0000000120 hartrees
 Requested basis set is 6-31+G(d)
 There are 59 shells and 185 basis functions
 A cutoff of  1.0D-12 yielded   1656 shell pairs
 There are     17099 function pairs
 Smallest overlap matrix eigenvalue = 1.40E-06
 Guess MOs from SCF MO coefficient file

 -----------------------------------------------------------------------
  General SCF calculation program by
  Eric Jon Sundstrom, Paul Horn, Yuezhi Mao, Dmitri Zuev, Alec White,
  David Stuck, Shaama M.S., Shane Yost, Joonho Lee, David Small,
  Daniel Levine, Susi Lehtola, Hugh Burton, Evgeny Epifanovsky,
  Bang C. Huynh
 -----------------------------------------------------------------------
 Exchange:     0.1577 Hartree-Fock + 1.0000 wB97X + LR-HF
 Correlation:  1.0000 wB97X
 Using SG-2 standard quadrature grid
 using 4 threads for integral computing
 -------------------------------------------------------
 OpenMP Integral computing Module                
 Release: version 1.0, May 2013, Q-Chem Inc. Pittsburgh 
 -------------------------------------------------------
 using 4 threads for integral computing
 -------------------------------------------------------
 OpenMP Integral computing Module                
 Release: version 1.0, May 2013, Q-Chem Inc. Pittsburgh 
 -------------------------------------------------------
 A restricted SCF calculation will be
 performed using DIIS
 SCF converges when DIIS error is below 1.0e-08
 ---------------------------------------
  Cycle       Energy         DIIS error
 ---------------------------------------
    1    -363.7170569809      6.45e-04  
    2    -363.7184542528      1.08e-04  
    3    -363.7185162652      6.98e-05  
    4    -363.7185389380      1.80e-05  
    5    -363.7185426392      6.88e-06  
    6    -363.7185434192      3.58e-06  
    7    -363.7185437022      1.52e-06  
    8    -363.7185437406      4.98e-07  
    9    -363.7185437436      1.77e-07  
   10    -363.7185437442      1.10e-07  
   11    -363.7185437443      3.22e-08  
   12    -363.7185437443      1.74e-08  
   13    -363.7185437443      5.92e-09  Convergence criterion met
 ---------------------------------------
 SCF time:   CPU 71.57s  wall 18.00s 
 SCF   energy in the final basis set =     -363.7185437443
 Total energy in the final basis set =     -363.7185437443
 
 Direct TDDFT/TDA calculation will be performed
 Exchange:     0.1577 Hartree-Fock + 1.0000 wB97X + LR-HF
 Correlation:  1.0000 wB97X
 Using SG-2 standard quadrature grid
 Singlet excitation energies requested
 CIS energy converged when residual is below 10e- 6
 ---------------------------------------------------
 Iter    Rts Conv    Rts Left    Ttl Dev     Max Dev
 ---------------------------------------------------
   1         0           3      0.003815    0.001776
   2         0           3      0.001150    0.000585
   3         0           3      0.000738    0.000345
   4         0           3      0.000407    0.000179
   5         0           3      0.000154    0.000075
   6         0           3      0.000067    0.000030
   7         0           3      0.000030    0.000012
   8         0           3      0.000014    0.000005
   9         0           3      0.000005    0.000002
  10         3           0      0.000002    0.000001    Roots Converged
 ---------------------------------------------------
 
 ---------------------------------------------------
         TDDFT/TDA Excitation Energies              
 ---------------------------------------------------

 Excited state   1: excitation energy (eV) =    5.0320
 Total energy for state  1:                  -363.53361937 au
    Multiplicity: Singlet
    Trans. Mom.: -0.3277 X  -0.3432 Y   0.0000 Z
    Strength   :     0.0277612045
    D(   30) --> V(    1) amplitude =  0.7847
    D(   31) --> V(    5) amplitude = -0.5475

 Excited state   2: excitation energy (eV) =    5.1095
 Total energy for state  2:                  -363.53077463 au
    Multiplicity: Singlet
    Trans. Mom.:  0.9024 X  -0.7945 Y  -0.0000 Z
    Strength   :     0.1809545073
    D(   30) --> V(    5) amplitude =  0.3108
    D(   31) --> V(    1) amplitude =  0.9154

 Excited state   3: excitation energy (eV) =    5.8605
 Total energy for state  3:                  -363.50317266 au
    Multiplicity: Singlet
    Trans. Mom.:  0.0000 X   0.0000 Y   0.2095 Z
    Strength   :     0.0063033664
    D(   31) --> V(    2) amplitude =  0.9228
 
 ---------------------------------------------------
 Calculating Relaxed Density
 ---------------------------------------------------
 Iter    Rts Conv    Rts Left    Ttl Dev     Max Dev
 ---------------------------------------------------
   1         0           3      0.000822    0.000378
   2         0           3      0.000337    0.000173
   3         0           3      0.000121    0.000051
   4         0           3      0.000040    0.000016
   5         0           3      0.000017    0.000007
   6         0           3      0.000006    0.000003
   7         3           0      0.000000    0.000000    Roots Converged
 ---------------------------------------------------
  SETman timing summary (seconds)
  CPU time               277.95s
  System time              0.00s
  Wall time               69.87s
 
 --------------------------------------------------------------
             Orbital Energies (a.u.) and Symmetries
 --------------------------------------------------------------
 
 Alpha MOs, Restricted
 -- Occupied --                  
-14.465 -10.315 -10.311 -10.285 -10.280 -10.279 -10.277 -10.273
  1 A'    2 A'    3 A'    4 A'    5 A'    6 A'    7 A'    8 A'                 
-10.265  -1.115  -0.965  -0.911  -0.863  -0.841  -0.749  -0.716
  9 A'   10 A'   11 A'   12 A'   13 A'   14 A'   15 A'   16 A'                 
 -0.699  -0.654  -0.600  -0.583  -0.545  -0.539  -0.539  -0.514
 17 A'   18 A'   19 A'   20 A'   21 A'   22 A'    1 A"   23 A'                 
 -0.501  -0.455  -0.442  -0.441  -0.380  -0.313  -0.287
 24 A'   25 A'   26 A'    2 A"    3 A"    4 A"    5 A"                         
 -- Virtual --                   
  0.049   0.066   0.084   0.088   0.095   0.101   0.104   0.119
  6 A"   27 A'   28 A'   29 A'    7 A"   30 A'   31 A'    8 A"                 
  0.126   0.129   0.130   0.135   0.154   0.160   0.168   0.169
 32 A'   33 A'    9 A"   34 A'   10 A"   11 A"   35 A'   36 A'                 
  0.180   0.195   0.206   0.208   0.220   0.225   0.233   0.238
 37 A'   12 A"   13 A"   38 A'   39 A'   14 A"   40 A'   15 A"                 
  0.240   0.254   0.256   0.259   0.266   0.272   0.275   0.286
 41 A'   42 A'   43 A'   16 A"   44 A'   45 A'   46 A'   17 A"                 
  0.288   0.296   0.302   0.307   0.309   0.315   0.326   0.334
 47 A'   48 A'   49 A'   50 A'   18 A"   51 A'   52 A'   53 A'                 
  0.342   0.345   0.361   0.372   0.382   0.391   0.398   0.412
 54 A'   55 A'   56 A'   57 A'   58 A'   59 A'   60 A'   61 A'                 
  0.430   0.451   0.464   0.484   0.524   0.546   0.611   0.671
 62 A'   63 A'   64 A'   65 A'   66 A'   67 A'   68 A'   69 A'                 
  0.705   0.776   0.778   0.803   0.817   0.826   0.836   0.838
 70 A'   71 A'   19 A"   20 A"   72 A'   21 A"   73 A'   74 A'                 
  0.840   0.858   0.863   0.880   0.894   0.896   0.918   0.956
 22 A"   23 A"   75 A'   24 A"   76 A'   25 A"   77 A'   26 A"                 
  0.996   1.006   1.017   1.049   1.053   1.062   1.069   1.093
 78 A'   79 A'   80 A'   81 A'   82 A'   83 A'   27 A"   84 A'                 
  1.102   1.137   1.155   1.172   1.196   1.218   1.223   1.276
 85 A'   86 A'   87 A'   88 A'   89 A'   90 A'   91 A'   92 A'                 
  1.282   1.310   1.328   1.343   1.351   1.422   1.427   1.450
 93 A'   94 A'   95 A'   28 A"   96 A'   97 A'   29 A"   30 A"                 
  1.468   1.512   1.514   1.544   1.572   1.578   1.600   1.603
 98 A'   99 A'   31 A"  100 A'   32 A"   33 A"   34 A"   35 A"                 
  1.645   1.689   1.745   1.893   1.925   1.989   2.000   2.012
101 A'  102 A'  103 A'  104 A'  105 A'  106 A'   36 A"  107 A'                 
  2.034   2.096   2.099   2.109   2.144   2.158   2.229   2.239
108 A'  109 A'  110 A'   37 A"  111 A'  112 A'  113 A'  114 A'                 
  2.260   2.296   2.331   2.347   2.366   2.368   2.406   2.468
 38 A"  115 A'   39 A"   40 A"   41 A"  116 A'  117 A'   42 A"                 
  2.507   2.552   2.633   2.652   2.725   2.736   2.753   2.776
 43 A"  118 A'  119 A'   44 A"  120 A'   45 A"  121 A'  122 A'                 
  2.823   2.895   2.932   2.943   3.060   3.070   3.195   3.333
123 A'  124 A'  125 A'  126 A'  127 A'  128 A'  129 A'  130 A'                 
  3.489   4.260   4.357   4.404   4.438   4.476   4.517   4.594
131 A'  132 A'  133 A'  134 A'  135 A'  136 A'  137 A'  138 A'                 
  4.635   4.886
139 A'  140 A'                                                                 
 
 Beta MOs, Restricted
 -- Occupied --                  
-14.465 -10.315 -10.311 -10.285 -10.280 -10.279 -10.277 -10.273
  1 A'    2 A'    3 A'    4 A'    5 A'    6 A'    7 A'    8 A'                 
-10.265  -1.115  -0.965  -0.911  -0.863  -0.841  -0.749  -0.716
  9 A'   10 A'   11 A'   12 A'   13 A'   14 A'   15 A'   16 A'                 
 -0.699  -0.654  -0.600  -0.583  -0.545  -0.539  -0.539  -0.514
 17 A'   18 A'   19 A'   20 A'   21 A'   22 A'    1 A"   23 A'                 
 -0.501  -0.455  -0.442  -0.441  -0.380  -0.313  -0.287
 24 A'   25 A'   26 A'    2 A"    3 A"    4 A"    5 A"                         
 -- Virtual --                   
  0.049   0.066   0.084   0.088   0.095   0.101   0.104   0.119
  6 A"   27 A'   28 A'   29 A'    7 A"   30 A'   31 A'    8 A"                 
  0.126   0.129   0.130   0.135   0.154   0.160   0.168   0.169
 32 A'   33 A'    9 A"   34 A'   10 A"   11 A"   35 A'   36 A'                 
  0.180   0.195   0.206   0.208   0.220   0.225   0.233   0.238
 37 A'   12 A"   13 A"   38 A'   39 A'   14 A"   40 A'   15 A"                 
  0.240   0.254   0.256   0.259   0.266   0.272   0.275   0.286
 41 A'   42 A'   43 A'   16 A"   44 A'   45 A'   46 A'   17 A"                 
  0.288   0.296   0.302   0.307   0.309   0.315   0.326   0.334
 47 A'   48 A'   49 A'   50 A'   18 A"   51 A'   52 A'   53 A'                 
  0.342   0.345   0.361   0.372   0.382   0.391   0.398   0.412
 54 A'   55 A'   56 A'   57 A'   58 A'   59 A'   60 A'   61 A'                 
  0.430   0.451   0.464   0.484   0.524   0.546   0.611   0.671
 62 A'   63 A'   64 A'   65 A'   66 A'   67 A'   68 A'   69 A'                 
  0.705   0.776   0.778   0.803   0.817   0.826   0.836   0.838
 70 A'   71 A'   19 A"   20 A"   72 A'   21 A"   73 A'   74 A'                 
  0.840   0.858   0.863   0.880   0.894   0.896   0.918   0.956
 22 A"   23 A"   75 A'   24 A"   76 A'   25 A"   77 A'   26 A"                 
  0.996   1.006   1.017   1.049   1.053   1.062   1.069   1.093
 78 A'   79 A'   80 A'   81 A'   82 A'   83 A'   27 A"   84 A'                 
  1.102   1.137   1.155   1.172   1.196   1.218   1.223   1.276
 85 A'   86 A'   87 A'   88 A'   89 A'   90 A'   91 A'   92 A'                 
  1.282   1.310   1.328   1.343   1.351   1.422   1.427   1.450
 93 A'   94 A'   95 A'   28 A"   96 A'   97 A'   29 A"   30 A"                 
  1.468   1.512   1.514   1.544   1.572   1.578   1.600   1.603
 98 A'   99 A'   31 A"  100 A'   32 A"   33 A"   34 A"   35 A"                 
  1.645   1.689   1.745   1.893   1.925   1.989   2.000   2.012
101 A'  102 A'  103 A'  104 A'  105 A'  106 A'   36 A"  107 A'                 
  2.034   2.096   2.099   2.109   2.144   2.158   2.229   2.239
108 A'  109 A'  110 A'   37 A"  111 A'  112 A'  113 A'  114 A'                 
  2.260   2.296   2.331   2.347   2.366   2.368   2.406   2.468
 38 A"  115 A'   39 A"   40 A"   41 A"  116 A'  117 A'   42 A"                 
  2.507   2.552   2.633   2.652   2.725   2.736   2.753   2.776
 43 A"  118 A'  119 A'   44 A"  120 A'   45 A"  121 A'  122 A'                 
  2.823   2.895   2.932   2.943   3.060   3.070   3.195   3.333
123 A'  124 A'  125 A'  126 A'  127 A'  128 A'  129 A'  130 A'                 
  3.489   4.260   4.357   4.404   4.438   4.476   4.517   4.594
131 A'  132 A'  133 A'  134 A'  135 A'  136 A'  137 A'  138 A'                 
  4.635   4.886
139 A'  140 A'                                                                 
 --------------------------------------------------------------
 
          Ground-State Mulliken Net Atomic Charges

     Atom                 Charge (a.u.)
  ----------------------------------------
      1 C                    -0.073329
      2 C                    -0.391111
      3 C                    -0.155647
      4 C                    -0.677169
      5 N                    -0.548025
      6 H                     0.429724
      7 C                    -0.231339
      8 C                     0.056838
      9 C                     0.849539
     10 C                    -0.501324
     11 H                     0.195858
     12 H                     0.199237
     13 H                     0.204837
     14 H                     0.220334
     15 H                     0.213536
     16 H                     0.208041
  ----------------------------------------
  Sum of atomic charges =     0.000000

 -----------------------------------------------------------------
                    Cartesian Multipole Moments
 -----------------------------------------------------------------
    Charge (ESU x 10^10)
                 0.0000
    Dipole Moment (Debye)
         X      -1.5558      Y       1.6141      Z       0.0000
       Tot       2.2418
    Quadrupole Moments (Debye-Ang)
        XX     -44.6501     XY      -3.3102     YY     -44.0649
        XZ       0.0000     YZ       0.0000     ZZ     -59.2863
    Octopole Moments (Debye-Ang^2)
       XXX     -16.0984    XXY       8.8644    XYY      -7.5196
       YYY      10.6692    XXZ       0.0000    XYZ      -0.0000
       YYZ       0.0000    XZZ      -2.3200    YZZ       2.1422
       ZZZ       0.0000
    Hexadecapole Moments (Debye-Ang^3)
      XXXX    -813.8730   XXXY     -22.0814   XXYY    -199.2828
      XYYY     -19.7816   YYYY    -372.0306   XXXZ       0.0000
      XXYZ       0.0000   XYYZ      -0.0000   YYYZ       0.0000
      XXZZ    -192.7315   XYZZ      -4.0724   YYZZ     -95.7143
      XZZZ      -0.0000   YZZZ       0.0000   ZZZZ     -73.3734
 -----------------------------------------------------------------
 Calculating analytic gradient of the CIS energy
 CIS relaxed dipole moment
            1
    1  -1.6216216
    2   0.6314027
    3   0.0000000
	Magnitude:	 1.740 au	 4.423 Debye
 CIS 2 State Energy is -363.5307746295
 Gradient of the state energy (including CIS Excitation Energy)
            1           2           3           4           5           6
    1   0.0034086  -0.0002894   0.0134174  -0.0133605   0.0219129   0.0009999
    2  -0.0156600   0.0257215  -0.0000727   0.0171227   0.0136131  -0.0004770
    3   0.0000000  -0.0000000   0.0000000  -0.0000000   0.0000000   0.0000000
            7           8           9          10          11          12
    1  -0.0025273  -0.0216479   0.0073390  -0.0085753   0.0000287   0.0001868
    2  -0.0293188   0.0039797  -0.0136582  -0.0001786   0.0001238  -0.0002411
    3   0.0000000  -0.0000000   0.0000000  -0.0000000  -0.0000000  -0.0000000
           13          14          15          16
    1  -0.0000930  -0.0001087   0.0001780  -0.0008692
    2   0.0003556  -0.0006168  -0.0004804  -0.0002126
    3   0.0000000   0.0000000  -0.0000000   0.0000000
 Gradient time:  CPU 45.69 s  wall 11.48 s
 Geometry Optimization Parameters
   NAtoms,    NIC,     NZ,  NCons,   NDum,   NFix, NCnnct, MaxDiis
       16     116       0       0       0       0       0       0

 Cartesian Hessian Update
 Hessian updated using BFGS update


** GEOMETRY OPTIMIZATION IN DELOCALIZED INTERNAL COORDINATES **
   Searching for a Minimum

   Optimization Cycle:   3

                       Coordinates (Angstroms)
     ATOM                X               Y               Z
      1  C         2.1791397308   -0.6890122868    0.0000000000
      2  C         2.1639009531    0.7206128330    0.0000000000
      3  C         0.9234427358    1.4481167942    0.0000000000
      4  C        -0.2463141281    0.6768222613    0.0000000000
      5  N        -1.5725516505    1.0725405142    0.0000000000
      6  H        -1.8800980729    2.0342093084    0.0000000000
      7  C        -2.4151205860   -0.0162201359    0.0000000000
      8  C        -1.6234066673   -1.1697199776    0.0000000000
      9  C        -0.2581471445   -0.7656203937    0.0000000000
     10  C         0.9780597225   -1.4638045253    0.0000000000
     11  H         3.1371770333   -1.2017857860    0.0000000000
     12  H         3.1024868569    1.2676491717    0.0000000000
     13  H         0.9002009411    2.5346021745    0.0000000000
     14  H        -3.4899585836    0.1018270791    0.0000000000
     15  H        -2.0016737819   -2.1848942912    0.0000000000
     16  H         1.0047521340   -2.5499122784    0.0000000000
   Point Group: cs    Number of degrees of freedom:    29


   Energy is   -363.530774630

 Hessian updated using BFGS update

 25 Hessian modes will be used to form the next step
  Hessian Eigenvalues:
     0.158840    0.160001    0.160273    0.212278    0.222148    0.225853
     0.245791    0.249249    0.351479    0.351841    0.352524    0.352635
     0.358068    0.358451    0.367585    0.374678    0.402138    0.423575
     0.443877    0.450106    0.465310    0.465562    0.473168    0.491619
     1.507943

 Minimum search - taking simple RFO step
 Searching for Lamda that Minimizes Along All modes
 Value Taken    Lamda =  -0.00159464
 Step Taken.  Stepsize is  0.040199

                             Maximum     Tolerance    Cnvgd?
         Gradient           0.022558      0.000300      NO
         Displacement       0.017393      0.001200      NO
         Energy change     -0.001389      0.000001      NO


 New Cartesian Coordinates Obtained by Inverse Iteration

 Displacement from previous Coordinates is:  0.061216
 ----------------------------------------------------------------
             Standard Nuclear Orientation (Angstroms)
    I     Atom           X                Y                Z
 ----------------------------------------------------------------
    1      C       2.1743856712    -0.6877563112     0.0000000000
    2      C       2.1534467580     0.7116780829     0.0000000000
    3      C       0.9171335376     1.4408963055     0.0000000000
    4      C      -0.2463859538     0.6722758074     0.0000000000
    5      N      -1.5733947645     1.0723687409     0.0000000000
    6      H      -1.8807905864     2.0341620698     0.0000000000
    7      C      -2.4089415578    -0.0106663289     0.0000000000
    8      C      -1.6145159070    -1.1645194671     0.0000000000
    9      C      -0.2541245272    -0.7625520875     0.0000000000
   10      C       0.9804612006    -1.4606984220     0.0000000000
   11      H       3.1329087197    -1.1996091428     0.0000000000
   12      H       3.0900415799     1.2615880319     0.0000000000
   13      H       0.8972961674     2.5268415002     0.0000000000
   14      H      -3.4834680846     0.1065754474     0.0000000000
   15      H      -1.9937435655    -2.1790109378     0.0000000000
   16      H       1.0115808048    -2.5461628270     0.0000000000
 ----------------------------------------------------------------
 Molecular Point Group                 Cs    NOp =  2
 Largest Abelian Subgroup              Cs    NOp =  2
 Nuclear Repulsion Energy =         397.88931229 hartrees
 There are       31 alpha and       31 beta electrons
 Applying Cartesian multipole field
    Component          Value
    ---------          -----
     (2,0,0)        1.00000E-11
     (0,2,0)        2.00000E-11
     (0,0,2)       -3.00000E-11
 Nucleus-field energy     =     0.0000000119 hartrees
 Requested basis set is 6-31+G(d)
 There are 59 shells and 185 basis functions
 A cutoff of  1.0D-12 yielded   1657 shell pairs
 There are     17105 function pairs
 Smallest overlap matrix eigenvalue = 1.33E-06
 Guess MOs from SCF MO coefficient file

 -----------------------------------------------------------------------
  General SCF calculation program by
  Eric Jon Sundstrom, Paul Horn, Yuezhi Mao, Dmitri Zuev, Alec White,
  David Stuck, Shaama M.S., Shane Yost, Joonho Lee, David Small,
  Daniel Levine, Susi Lehtola, Hugh Burton, Evgeny Epifanovsky,
  Bang C. Huynh
 -----------------------------------------------------------------------
 Exchange:     0.1577 Hartree-Fock + 1.0000 wB97X + LR-HF
 Correlation:  1.0000 wB97X
 Using SG-2 standard quadrature grid
 using 4 threads for integral computing
 -------------------------------------------------------
 OpenMP Integral computing Module                
 Release: version 1.0, May 2013, Q-Chem Inc. Pittsburgh 
 -------------------------------------------------------
 using 4 threads for integral computing
 -------------------------------------------------------
 OpenMP Integral computing Module                
 Release: version 1.0, May 2013, Q-Chem Inc. Pittsburgh 
 -------------------------------------------------------
 A restricted SCF calculation will be
 performed using DIIS
 SCF converges when DIIS error is below 1.0e-08
 ---------------------------------------
  Cycle       Energy         DIIS error
 ---------------------------------------
    1    -363.7191690754      2.05e-04  
    2    -363.7193288785      4.51e-05  
    3    -363.7193379993      2.76e-05  
    4    -363.7193416741      6.09e-06  
    5    -363.7193420374      2.53e-06  
    6    -363.7193421307      1.23e-06  
    7    -363.7193421546      5.49e-07  
    8    -363.7193421587      2.04e-07  
    9    -363.7193421590      5.83e-08  
   10    -363.7193421591      2.06e-08  
   11    -363.7193421591      5.12e-09  Convergence criterion met
 ---------------------------------------
 SCF time:   CPU 60.50s  wall 15.00s 
 SCF   energy in the final basis set =     -363.7193421591
 Total energy in the final basis set =     -363.7193421591
 
 Direct TDDFT/TDA calculation will be performed
 Exchange:     0.1577 Hartree-Fock + 1.0000 wB97X + LR-HF
 Correlation:  1.0000 wB97X
 Using SG-2 standard quadrature grid
 Singlet excitation energies requested
 CIS energy converged when residual is below 10e- 6
 ---------------------------------------------------
 Iter    Rts Conv    Rts Left    Ttl Dev     Max Dev
 ---------------------------------------------------
   1         0           3      0.003815    0.001771
   2         0           3      0.001148    0.000588
   3         0           3      0.000722    0.000387
   4         0           3      0.000396    0.000197
   5         0           3      0.000155    0.000078
   6         0           3      0.000068    0.000032
   7         0           3      0.000031    0.000012
   8         0           3      0.000014    0.000005
   9         0           3      0.000005    0.000002
  10         3           0      0.000002    0.000001    Roots Converged
 ---------------------------------------------------
 
 ---------------------------------------------------
         TDDFT/TDA Excitation Energies              
 ---------------------------------------------------

 Excited state   1: excitation energy (eV) =    5.0819
 Total energy for state  1:                  -363.53258719 au
    Multiplicity: Singlet
    Trans. Mom.:  0.5779 X   0.0441 Y   0.0000 Z
    Strength   :     0.0418183362
    D(   30) --> V(    1) amplitude =  0.7534
    D(   31) --> V(    5) amplitude =  0.5623

 Excited state   2: excitation energy (eV) =    5.0981
 Total energy for state  2:                  -363.53198980 au
    Multiplicity: Singlet
    Trans. Mom.: -0.8017 X   0.8687 Y  -0.0000 Z
    Strength   :     0.1745348233
    D(   30) --> V(    5) amplitude = -0.2904
    D(   31) --> V(    1) amplitude =  0.9026

 Excited state   3: excitation energy (eV) =    5.8196
 Total energy for state  3:                  -363.50547412 au
    Multiplicity: Singlet
    Trans. Mom.:  0.0000 X   0.0000 Y   0.2118 Z
    Strength   :     0.0063960903
    D(   31) --> V(    2) amplitude =  0.9244
 
 ---------------------------------------------------
 Calculating Relaxed Density
 ---------------------------------------------------
 Iter    Rts Conv    Rts Left    Ttl Dev     Max Dev
 ---------------------------------------------------
   1         0           3      0.000833    0.000377
   2         0           3      0.000330    0.000163
   3         0           3      0.000114    0.000050
   4         0           3      0.000038    0.000017
   5         0           3      0.000016    0.000008
   6         1           2      0.000004    0.000002
   7         3           0      0.000000    0.000000    Roots Converged
 ---------------------------------------------------
  SETman timing summary (seconds)
  CPU time               277.74s
  System time              0.00s
  Wall time               69.85s
 
 --------------------------------------------------------------
             Orbital Energies (a.u.) and Symmetries
 --------------------------------------------------------------
 
 Alpha MOs, Restricted
 -- Occupied --                  
-14.465 -10.314 -10.310 -10.283 -10.279 -10.277 -10.275 -10.271
  1 A'    2 A'    3 A'    4 A'    5 A'    6 A'    7 A'    8 A'                 
-10.264  -1.117  -0.968  -0.912  -0.866  -0.841  -0.750  -0.717
  9 A'   10 A'   11 A'   12 A'   13 A'   14 A'   15 A'   16 A'                 
 -0.699  -0.656  -0.599  -0.583  -0.546  -0.540  -0.540  -0.513
 17 A'   18 A'   19 A'   20 A'   21 A'   22 A'    1 A"   23 A'                 
 -0.500  -0.454  -0.443  -0.442  -0.379  -0.315  -0.286
 24 A'   25 A'    2 A"   26 A'    3 A"    4 A"    5 A"                         
 -- Virtual --                   
  0.049   0.066   0.084   0.088   0.096   0.101   0.105   0.120
  6 A"   27 A'   28 A'   29 A'    7 A"   30 A'   31 A'    8 A"                 
  0.126   0.129   0.131   0.135   0.154   0.160   0.168   0.169
 32 A'   33 A'    9 A"   34 A'   10 A"   11 A"   35 A'   36 A'                 
  0.180   0.196   0.207   0.208   0.221   0.225   0.233   0.239
 37 A'   12 A"   13 A"   38 A'   39 A'   14 A"   40 A'   15 A"                 
  0.240   0.254   0.257   0.260   0.266   0.272   0.276   0.287
 41 A'   42 A'   43 A'   16 A"   44 A'   45 A'   46 A'   17 A"                 
  0.288   0.297   0.303   0.307   0.309   0.315   0.326   0.334
 47 A'   48 A'   49 A'   50 A'   18 A"   51 A'   52 A'   53 A'                 
  0.344   0.346   0.361   0.373   0.384   0.394   0.400   0.414
 54 A'   55 A'   56 A'   57 A'   58 A'   59 A'   60 A'   61 A'                 
  0.433   0.451   0.465   0.486   0.527   0.548   0.613   0.676
 62 A'   63 A'   64 A'   65 A'   66 A'   67 A'   68 A'   69 A'                 
  0.710   0.776   0.778   0.803   0.819   0.826   0.838   0.839
 70 A'   71 A'   19 A"   20 A"   72 A'   21 A"   73 A'   22 A"                 
  0.841   0.859   0.865   0.880   0.896   0.896   0.919   0.957
 74 A'   23 A"   75 A'   24 A"   76 A'   25 A"   77 A'   26 A"                 
  0.997   1.005   1.018   1.049   1.053   1.062   1.069   1.094
 78 A'   79 A'   80 A'   81 A'   82 A'   83 A'   27 A"   84 A'                 
  1.105   1.137   1.155   1.171   1.196   1.219   1.226   1.278
 85 A'   86 A'   87 A'   88 A'   89 A'   90 A'   91 A'   92 A'                 
  1.284   1.312   1.329   1.343   1.353   1.424   1.427   1.450
 93 A'   94 A'   95 A'   28 A"   96 A'   97 A'   29 A"   30 A"                 
  1.469   1.514   1.515   1.547   1.573   1.577   1.601   1.604
 98 A'   99 A'   31 A"  100 A'   32 A"   33 A"   34 A"   35 A"                 
  1.648   1.693   1.747   1.893   1.929   1.993   2.002   2.017
101 A'  102 A'  103 A'  104 A'  105 A'  106 A'   36 A"  107 A'                 
  2.037   2.100   2.103   2.112   2.149   2.168   2.238   2.251
108 A'  109 A'  110 A'   37 A"  111 A'  112 A'  113 A'  114 A'                 
  2.264   2.299   2.335   2.353   2.369   2.376   2.413   2.475
 38 A"  115 A'   39 A"   40 A"   41 A"  116 A'  117 A'   42 A"                 
  2.511   2.557   2.638   2.659   2.728   2.747   2.756   2.781
 43 A"  118 A'  119 A'   44 A"  120 A'   45 A"  121 A'  122 A'                 
  2.830   2.902   2.938   2.949   3.063   3.077   3.201   3.341
123 A'  124 A'  125 A'  126 A'  127 A'  128 A'  129 A'  130 A'                 
  3.505   4.264   4.364   4.405   4.438   4.479   4.519   4.596
131 A'  132 A'  133 A'  134 A'  135 A'  136 A'  137 A'  138 A'                 
  4.637   4.892
139 A'  140 A'                                                                 
 
 Beta MOs, Restricted
 -- Occupied --                  
-14.465 -10.314 -10.310 -10.283 -10.279 -10.277 -10.275 -10.271
  1 A'    2 A'    3 A'    4 A'    5 A'    6 A'    7 A'    8 A'                 
-10.264  -1.117  -0.968  -0.912  -0.866  -0.841  -0.750  -0.717
  9 A'   10 A'   11 A'   12 A'   13 A'   14 A'   15 A'   16 A'                 
 -0.699  -0.656  -0.599  -0.583  -0.546  -0.540  -0.540  -0.513
 17 A'   18 A'   19 A'   20 A'   21 A'   22 A'    1 A"   23 A'                 
 -0.500  -0.454  -0.443  -0.442  -0.379  -0.315  -0.286
 24 A'   25 A'    2 A"   26 A'    3 A"    4 A"    5 A"                         
 -- Virtual --                   
  0.049   0.066   0.084   0.088   0.096   0.101   0.105   0.120
  6 A"   27 A'   28 A'   29 A'    7 A"   30 A'   31 A'    8 A"                 
  0.126   0.129   0.131   0.135   0.154   0.160   0.168   0.169
 32 A'   33 A'    9 A"   34 A'   10 A"   11 A"   35 A'   36 A'                 
  0.180   0.196   0.207   0.208   0.221   0.225   0.233   0.239
 37 A'   12 A"   13 A"   38 A'   39 A'   14 A"   40 A'   15 A"                 
  0.240   0.254   0.257   0.260   0.266   0.272   0.276   0.287
 41 A'   42 A'   43 A'   16 A"   44 A'   45 A'   46 A'   17 A"                 
  0.288   0.297   0.303   0.307   0.309   0.315   0.326   0.334
 47 A'   48 A'   49 A'   50 A'   18 A"   51 A'   52 A'   53 A'                 
  0.344   0.346   0.361   0.373   0.384   0.394   0.400   0.414
 54 A'   55 A'   56 A'   57 A'   58 A'   59 A'   60 A'   61 A'                 
  0.433   0.451   0.465   0.486   0.527   0.548   0.613   0.676
 62 A'   63 A'   64 A'   65 A'   66 A'   67 A'   68 A'   69 A'                 
  0.710   0.776   0.778   0.803   0.819   0.826   0.838   0.839
 70 A'   71 A'   19 A"   20 A"   72 A'   21 A"   73 A'   22 A"                 
  0.841   0.859   0.865   0.880   0.896   0.896   0.919   0.957
 74 A'   23 A"   75 A'   24 A"   76 A'   25 A"   77 A'   26 A"                 
  0.997   1.005   1.018   1.049   1.053   1.062   1.069   1.094
 78 A'   79 A'   80 A'   81 A'   82 A'   83 A'   27 A"   84 A'                 
  1.105   1.137   1.155   1.171   1.196   1.219   1.226   1.278
[...]
   3         0           3      0.000133    0.000061
   4         0           3      0.000046    0.000024
   5         0           3      0.000021    0.000012
   6         0           3      0.000006    0.000003
   7         3           0      0.000000    0.000000    Roots Converged
 ---------------------------------------------------
  SETman timing summary (seconds)
  CPU time               298.53s
  System time              0.00s
  Wall time               75.07s
 
 --------------------------------------------------------------
             Orbital Energies (a.u.) and Symmetries
 --------------------------------------------------------------
 
 Alpha MOs, Restricted
 -- Occupied --                  
-14.462 -10.313 -10.310 -10.281 -10.278 -10.278 -10.276 -10.271
  1 A'    2 A'    3 A'    4 A'    5 A'    6 A'    7 A'    8 A'                 
-10.266  -1.115  -0.965  -0.915  -0.860  -0.846  -0.749  -0.714
  9 A'   10 A'   11 A'   12 A'   13 A'   14 A'   15 A'   16 A'                 
 -0.701  -0.654  -0.601  -0.582  -0.542  -0.539  -0.537  -0.518
 17 A'   18 A'   19 A'   20 A'   21 A'    1 A"   22 A'   23 A'                 
 -0.502  -0.455  -0.440  -0.439  -0.383  -0.309  -0.293
 24 A'   25 A'    2 A"   26 A'    3 A"    4 A"    5 A"                         
 -- Virtual --                   
  0.051   0.066   0.084   0.088   0.096   0.101   0.104   0.120
  6 A"   27 A'   28 A'   29 A'    7 A"   30 A'   31 A'    8 A"                 
  0.126   0.129   0.130   0.135   0.154   0.160   0.167   0.169
 32 A'   33 A'    9 A"   34 A'   10 A"   11 A"   35 A'   36 A'                 
  0.180   0.196   0.207   0.209   0.221   0.226   0.234   0.238
 37 A'   12 A"   13 A"   38 A'   39 A'   14 A"   40 A'   15 A"                 
  0.238   0.255   0.256   0.259   0.266   0.272   0.273   0.286
 41 A'   42 A'   43 A'   16 A"   44 A'   45 A'   46 A'   17 A"                 
  0.288   0.297   0.301   0.308   0.311   0.315   0.328   0.333
 47 A'   48 A'   49 A'   50 A'   18 A"   51 A'   52 A'   53 A'                 
  0.340   0.345   0.363   0.372   0.385   0.394   0.397   0.412
 54 A'   55 A'   56 A'   57 A'   58 A'   59 A'   60 A'   61 A'                 
  0.430   0.457   0.465   0.489   0.526   0.551   0.613   0.673
 62 A'   63 A'   64 A'   65 A'   66 A'   67 A'   68 A'   69 A'                 
  0.709   0.777   0.778   0.803   0.813   0.826   0.836   0.841
 70 A'   71 A'   19 A"   20 A"   72 A'   21 A"   73 A'   22 A"                 
  0.841   0.857   0.863   0.881   0.896   0.899   0.920   0.956
 74 A'   23 A"   75 A'   24 A"   25 A"   76 A'   77 A'   26 A"                 
  0.998   1.009   1.019   1.046   1.053   1.061   1.069   1.094
 78 A'   79 A'   80 A'   81 A'   82 A'   83 A'   27 A"   84 A'                 
  1.103   1.136   1.157   1.174   1.198   1.218   1.224   1.274
 85 A'   86 A'   87 A'   88 A'   89 A'   90 A'   91 A'   92 A'                 
  1.285   1.312   1.330   1.343   1.352   1.420   1.430   1.449
 93 A'   94 A'   95 A'   28 A"   96 A'   97 A'   29 A"   30 A"                 
  1.472   1.515   1.515   1.547   1.573   1.578   1.603   1.605
 98 A'   99 A'   31 A"  100 A'   32 A"   33 A"   34 A"   35 A"                 
  1.640   1.696   1.747   1.899   1.936   1.982   2.001   2.023
101 A'  102 A'  103 A'  104 A'  105 A'  106 A'   36 A"  107 A'                 
  2.039   2.095   2.104   2.109   2.152   2.159   2.232   2.241
108 A'  109 A'  110 A'   37 A"  111 A'  112 A'  113 A'  114 A'                 
  2.257   2.308   2.336   2.348   2.370   2.375   2.410   2.471
 38 A"  115 A'   39 A"   40 A"  116 A'   41 A"  117 A'   42 A"                 
  2.516   2.548   2.647   2.659   2.730   2.745   2.755   2.785
 43 A"  118 A'  119 A'   44 A"  120 A'   45 A"  121 A'  122 A'                 
  2.827   2.900   2.937   2.952   3.067   3.076   3.204   3.342
123 A'  124 A'  125 A'  126 A'  127 A'  128 A'  129 A'  130 A'                 
  3.500   4.260   4.362   4.405   4.446   4.481   4.516   4.597
131 A'  132 A'  133 A'  134 A'  135 A'  136 A'  137 A'  138 A'                 
  4.637   4.890
139 A'  140 A'                                                                 
 
 Beta MOs, Restricted
 -- Occupied --                  
-14.462 -10.313 -10.310 -10.281 -10.278 -10.278 -10.276 -10.271
  1 A'    2 A'    3 A'    4 A'    5 A'    6 A'    7 A'    8 A'                 
-10.266  -1.115  -0.965  -0.915  -0.860  -0.846  -0.749  -0.714
  9 A'   10 A'   11 A'   12 A'   13 A'   14 A'   15 A'   16 A'                 
 -0.701  -0.654  -0.601  -0.582  -0.542  -0.539  -0.537  -0.518
 17 A'   18 A'   19 A'   20 A'   21 A'    1 A"   22 A'   23 A'                 
 -0.502  -0.455  -0.440  -0.439  -0.383  -0.309  -0.293
 24 A'   25 A'    2 A"   26 A'    3 A"    4 A"    5 A"                         
 -- Virtual --                   
  0.051   0.066   0.084   0.088   0.096   0.101   0.104   0.120
  6 A"   27 A'   28 A'   29 A'    7 A"   30 A'   31 A'    8 A"                 
  0.126   0.129   0.130   0.135   0.154   0.160   0.167   0.169
 32 A'   33 A'    9 A"   34 A'   10 A"   11 A"   35 A'   36 A'                 
  0.180   0.196   0.207   0.209   0.221   0.226   0.234   0.238
 37 A'   12 A"   13 A"   38 A'   39 A'   14 A"   40 A'   15 A"                 
  0.238   0.255   0.256   0.259   0.266   0.272   0.273   0.286
 41 A'   42 A'   43 A'   16 A"   44 A'   45 A'   46 A'   17 A"                 
  0.288   0.297   0.301   0.308   0.311   0.315   0.328   0.333
 47 A'   48 A'   49 A'   50 A'   18 A"   51 A'   52 A'   53 A'                 
  0.340   0.345   0.363   0.372   0.385   0.394   0.397   0.412
 54 A'   55 A'   56 A'   57 A'   58 A'   59 A'   60 A'   61 A'                 
  0.430   0.457   0.465   0.489   0.526   0.551   0.613   0.673
 62 A'   63 A'   64 A'   65 A'   66 A'   67 A'   68 A'   69 A'                 
  0.709   0.777   0.778   0.803   0.813   0.826   0.836   0.841
 70 A'   71 A'   19 A"   20 A"   72 A'   21 A"   73 A'   22 A"                 
  0.841   0.857   0.863   0.881   0.896   0.899   0.920   0.956
 74 A'   23 A"   75 A'   24 A"   25 A"   76 A'   77 A'   26 A"                 
  0.998   1.009   1.019   1.046   1.053   1.061   1.069   1.094
 78 A'   79 A'   80 A'   81 A'   82 A'   83 A'   27 A"   84 A'                 
  1.103   1.136   1.157   1.174   1.198   1.218   1.224   1.274
 85 A'   86 A'   87 A'   88 A'   89 A'   90 A'   91 A'   92 A'                 
  1.285   1.312   1.330   1.343   1.352   1.420   1.430   1.449
 93 A'   94 A'   95 A'   28 A"   96 A'   97 A'   29 A"   30 A"                 
  1.472   1.515   1.515   1.547   1.573   1.578   1.603   1.605
 98 A'   99 A'   31 A"  100 A'   32 A"   33 A"   34 A"   35 A"                 
  1.640   1.696   1.747   1.899   1.936   1.982   2.001   2.023
101 A'  102 A'  103 A'  104 A'  105 A'  106 A'   36 A"  107 A'                 
  2.039   2.095   2.104   2.109   2.152   2.159   2.232   2.241
108 A'  109 A'  110 A'   37 A"  111 A'  112 A'  113 A'  114 A'                 
  2.257   2.308   2.336   2.348   2.370   2.375   2.410   2.471
 38 A"  115 A'   39 A"   40 A"  116 A'   41 A"  117 A'   42 A"                 
  2.516   2.548   2.647   2.659   2.730   2.745   2.755   2.785
 43 A"  118 A'  119 A'   44 A"  120 A'   45 A"  121 A'  122 A'                 
  2.827   2.900   2.937   2.952   3.067   3.076   3.204   3.342
123 A'  124 A'  125 A'  126 A'  127 A'  128 A'  129 A'  130 A'                 
  3.500   4.260   4.362   4.405   4.446   4.481   4.516   4.597
131 A'  132 A'  133 A'  134 A'  135 A'  136 A'  137 A'  138 A'                 
  4.637   4.890
139 A'  140 A'                                                                 
 --------------------------------------------------------------
 
          Ground-State Mulliken Net Atomic Charges

     Atom                 Charge (a.u.)
  ----------------------------------------
      1 C                    -0.060301
      2 C                    -0.403845
      3 C                    -0.107537
      4 C                    -0.661785
      5 N                    -0.563991
      6 H                     0.427873
      7 C                    -0.231459
      8 C                     0.093202
      9 C                     0.823048
     10 C                    -0.555315
     11 H                     0.193351
     12 H                     0.201184
     13 H                     0.202674
     14 H                     0.220483
     15 H                     0.215440
     16 H                     0.206977
  ----------------------------------------
  Sum of atomic charges =     0.000000

 -----------------------------------------------------------------
                    Cartesian Multipole Moments
 -----------------------------------------------------------------
    Charge (ESU x 10^10)
                -0.0000
    Dipole Moment (Debye)
         X      -1.6052      Y       1.5174      Z       0.0000
       Tot       2.2089
    Quadrupole Moments (Debye-Ang)
        XX     -44.6548     XY      -2.9671     YY     -44.1364
        XZ      -0.0000     YZ      -0.0000     ZZ     -59.1495
    Octopole Moments (Debye-Ang^2)
       XXX     -16.2434    XXY       8.6108    XYY      -7.4582
       YYY      10.0320    XXZ      -0.0000    XYZ      -0.0000
       YYZ      -0.0000    XZZ      -2.3864    YZZ       2.0350
       ZZZ       0.0000
    Hexadecapole Moments (Debye-Ang^3)
      XXXX    -812.0803   XXXY     -22.3709   XXYY    -198.2684
      XYYY     -22.0592   YYYY    -371.4456   XXXZ      -0.0000
      XXYZ       0.0000   XYYZ      -0.0000   YYYZ      -0.0000
      XXZZ    -191.7394   XYZZ      -5.0076   YYZZ     -95.0496
      XZZZ      -0.0000   YZZZ       0.0000   ZZZZ     -72.9009
 -----------------------------------------------------------------
 Calculating analytic gradient of the CIS energy
 CIS relaxed dipole moment
            1
    1  -1.5044981
    2   0.6404831
    3  -0.0000000
	Magnitude:	 1.635 au	 4.156 Debye
 CIS 2 State Energy is -363.5256060086
 Gradient of the state energy (including CIS Excitation Energy)
            1           2           3           4           5           6
    1  -0.0029094   0.0000893   0.0164375  -0.0225926   0.0485717   0.0014892
    2  -0.0093117   0.0268175  -0.0068281   0.0253328   0.0098588  -0.0001803
    3  -0.0000000   0.0000000  -0.0000000  -0.0000000   0.0000000   0.0000000
            7           8           9          10          11          12
    1  -0.0033766  -0.0418228   0.0183318  -0.0149109  -0.0001411  -0.0004015
    2  -0.0557414   0.0185241  -0.0121636   0.0060957  -0.0007164  -0.0008097
    3   0.0000000  -0.0000000   0.0000000   0.0000000  -0.0000000  -0.0000000
           13          14          15          16
    1   0.0003541   0.0006921   0.0001119   0.0000773
    2  -0.0000590  -0.0008168  -0.0000949   0.0000928
    3   0.0000000  -0.0000000  -0.0000000   0.0000000
 Gradient time:  CPU 47.06 s  wall 11.83 s
 Geometry Optimization Parameters
   NAtoms,    NIC,     NZ,  NCons,   NDum,   NFix, NCnnct, MaxDiis
       16     116       0       0       0       0       0       0

 Cartesian Hessian Update
 Hessian updated using BFGS update


** GEOMETRY OPTIMIZATION IN DELOCALIZED INTERNAL COORDINATES **
   Searching for a Minimum

   Optimization Cycle:  23

                       Coordinates (Angstroms)
     ATOM                X               Y               Z
      1  C         2.1674066210   -0.6772438117    0.0000000000
      2  C         2.1659243254    0.7319449809    0.0000000000
      3  C         0.9305559221    1.4441141901    0.0000000000
      4  C        -0.2451539669    0.6777791703    0.0000000000
      5  N        -1.5488443535    1.0641128366    0.0000000000
      6  H        -1.8571108409    2.0255548551    0.0000000000
      7  C        -2.4134674074   -0.0371591305    0.0000000000
      8  C        -1.6426441133   -1.1707603742    0.0000000000
      9  C        -0.2617078056   -0.7702285289    0.0000000000
     10  C         0.9669331389   -1.4511965196    0.0000000000
     11  H         3.1188702130   -1.2031073326    0.0000000000
     12  H         3.1051363240    1.2749486019    0.0000000000
     13  H         0.9045568368    2.5305126599    0.0000000000
     14  H        -3.4849333251    0.0991094668    0.0000000000
     15  H        -2.0176233637   -2.1865538029    0.0000000000
     16  H         1.0139912879   -2.5364167995    0.0000000000
   Point Group: cs    Number of degrees of freedom:    29


   Energy is   -363.525606009

 Hessian updated using BFGS update

 29 Hessian modes will be used to form the next step
  Hessian Eigenvalues:
     0.158031    0.159743    0.159998    0.160011    0.160120    0.160442
     0.160582    0.222220    0.222679    0.242505    0.246174    0.291697
     0.351835    0.351882    0.352535    0.352703    0.358412    0.358585
     0.374814    0.396637    0.424155    0.436282    0.459891    0.465634
     0.473996    0.526727    0.658188    0.918390    1.321265

 Minimum search - taking simple RFO step
 Searching for Lamda that Minimizes Along All modes
 Value Taken    Lamda =  -0.00593212
 Step Taken.  Stepsize is  0.085078

                             Maximum     Tolerance    Cnvgd?
         Gradient           0.042788      0.000300      NO
         Displacement       0.041524      0.001200      NO
         Energy change      0.005886      0.000001      NO


 New Cartesian Coordinates Obtained by Inverse Iteration

 Displacement from previous Coordinates is:  0.096036
 ----------------------------------------------------------------
             Standard Nuclear Orientation (Angstroms)
    I     Atom           X                Y                Z
 ----------------------------------------------------------------
    1      C       2.1734758415    -0.6845235205     0.0000000000
    2      C       2.1582830302     0.7184003786     0.0000000000
    3      C       0.9216018630     1.4412890575     0.0000000000
    4      C      -0.2463770227     0.6744350840     0.0000000000
    5      N      -1.5667099031     1.0709142238     0.0000000000
    6      H      -1.8743604720     2.0325463634     0.0000000000
    7      C      -2.4117133916    -0.0191682634     0.0000000000
    8      C      -1.6246442389    -1.1668586412     0.0000000000
    9      C      -0.2563418800    -0.7663869297     0.0000000000
   10      C       0.9763929504    -1.4575250537     0.0000000000
   11      H       3.1292373752    -1.2020521051     0.0000000000
   12      H       3.0951943563     1.2671496171     0.0000000000
   13      H       0.9010274941     2.5273566724     0.0000000000
   14      H      -3.4853967038     0.1041998287     0.0000000000
   15      H      -2.0029973268    -2.1815058866     0.0000000000
   16      H       1.0152175207    -2.5428603635     0.0000000000
 ----------------------------------------------------------------
 Molecular Point Group                 Cs    NOp =  2
 Largest Abelian Subgroup              Cs    NOp =  2
 Nuclear Repulsion Energy =         397.63656754 hartrees
 There are       31 alpha and       31 beta electrons
 Applying Cartesian multipole field
    Component          Value
    ---------          -----
     (2,0,0)        1.00000E-11
     (0,2,0)        2.00000E-11
     (0,0,2)       -3.00000E-11
 Nucleus-field energy     =     0.0000000119 hartrees
 Requested basis set is 6-31+G(d)
 There are 59 shells and 185 basis functions
 A cutoff of  1.0D-12 yielded   1656 shell pairs
 There are     17099 function pairs
 Smallest overlap matrix eigenvalue = 1.35E-06
 Guess MOs from SCF MO coefficient file

 -----------------------------------------------------------------------
  General SCF calculation program by
  Eric Jon Sundstrom, Paul Horn, Yuezhi Mao, Dmitri Zuev, Alec White,
  David Stuck, Shaama M.S., Shane Yost, Joonho Lee, David Small,
  Daniel Levine, Susi Lehtola, Hugh Burton, Evgeny Epifanovsky,
  Bang C. Huynh
 -----------------------------------------------------------------------
 Exchange:     0.1577 Hartree-Fock + 1.0000 wB97X + LR-HF
 Correlation:  1.0000 wB97X
 Using SG-2 standard quadrature grid
 using 4 threads for integral computing
 -------------------------------------------------------
 OpenMP Integral computing Module                
 Release: version 1.0, May 2013, Q-Chem Inc. Pittsburgh 
 -------------------------------------------------------
 using 4 threads for integral computing
 -------------------------------------------------------
 OpenMP Integral computing Module                
 Release: version 1.0, May 2013, Q-Chem Inc. Pittsburgh 
 -------------------------------------------------------
 A restricted SCF calculation will be
 performed using DIIS
 SCF converges when DIIS error is below 1.0e-08
 ---------------------------------------
  Cycle       Energy         DIIS error
 ---------------------------------------
    1    -363.7191013124      4.00e-04  
    2    -363.7199765256      8.21e-05  
    3    -363.7200350562      4.28e-05  
    4    -363.7200465811      1.61e-05  
    5    -363.7200500360      5.87e-06  
    6    -363.7200507928      4.24e-06  
    7    -363.7200509723      9.65e-07  
    8    -363.7200509886      4.81e-07  
    9    -363.7200509902      1.45e-07  
   10    -363.7200509905      4.20e-08  
   11    -363.7200509905      2.16e-08  
   12    -363.7200509905      8.75e-09  Convergence criterion met
 ---------------------------------------
 SCF time:   CPU 67.18s  wall 17.00s 
 SCF   energy in the final basis set =     -363.7200509905
 Total energy in the final basis set =     -363.7200509905
 
 Direct TDDFT/TDA calculation will be performed
 Exchange:     0.1577 Hartree-Fock + 1.0000 wB97X + LR-HF
 Correlation:  1.0000 wB97X
 Using SG-2 standard quadrature grid
 Singlet excitation energies requested
 CIS energy converged when residual is below 10e- 6
 ---------------------------------------------------
 Iter    Rts Conv    Rts Left    Ttl Dev     Max Dev
 ---------------------------------------------------
   1         0           3      0.003812    0.001776
   2         0           3      0.001153    0.000582
   3         0           3      0.000740    0.000339
   4         0           3      0.000411    0.000172
   5         0           3      0.000156    0.000073
   6         0           3      0.000067    0.000029
   7         0           3      0.000030    0.000012
   8         0           3      0.000014    0.000005
   9         0           3      0.000005    0.000002
  10         3           0      0.000002    0.000001    Roots Converged
 ---------------------------------------------------
 
 ---------------------------------------------------
         TDDFT/TDA Excitation Energies              
 ---------------------------------------------------

 Excited state   1: excitation energy (eV) =    5.0595
 Total energy for state  1:                  -363.53411869 au
    Multiplicity: Singlet
    Trans. Mom.:  0.2677 X   0.4282 Y   0.0000 Z
    Strength   :     0.0316069507
    D(   30) --> V(    1) amplitude =  0.7750
    D(   31) --> V(    1) amplitude =  0.2135
    D(   31) --> V(    5) amplitude =  0.5256

 Excited state   2: excitation energy (eV) =    5.1590
 Total energy for state  2:                  -363.53046163 au
    Multiplicity: Singlet
    Trans. Mom.: -0.8921 X   0.7561 Y   0.0000 Z
    Strength   :     0.1728415330
    D(   30) --> V(    5) amplitude = -0.3089
    D(   31) --> V(    1) amplitude =  0.8952

 Excited state   3: excitation energy (eV) =    5.8836
 Total energy for state  3:                  -363.50383088 au
    Multiplicity: Singlet
    Trans. Mom.: -0.0000 X  -0.0000 Y   0.2035 Z
    Strength   :     0.0059677112
    D(   31) --> V(    2) amplitude =  0.9219
 
 ---------------------------------------------------
 Calculating Relaxed Density
 ---------------------------------------------------
 Iter    Rts Conv    Rts Left    Ttl Dev     Max Dev
 ---------------------------------------------------
   1         0           3      0.000817    0.000374
