 Entering Gaussian System, Link 0=/cm/shared/apps/spack/cpu/opt/spack/linux-centos8-zen/gcc-8.3.1/gaussian-16.C.01-po5bqktfeugvmjyga3v7eigbecnokxng/g16/g16
 Initial command:
 /cm/shared/apps/spack/cpu/opt/spack/linux-centos8-zen/gcc-8.3.1/gaussian-16.C.01-po5bqktfeugvmjyga3v7eigbecnokxng/g16/l1.exe "/scratch/cwaldt/job_3402215/Gau-63261.inp" -scrdir="/scratch/cwaldt/job_3402215/"
 Entering Link 1 = /cm/shared/apps/spack/cpu/opt/spack/linux-centos8-zen/gcc-8.3.1/gaussian-16.C.01-po5bqktfeugvmjyga3v7eigbecnokxng/g16/l1.exe PID=     63262.
  
 Copyright (c) 1988-2019, Gaussian, Inc.  All Rights Reserved.
  
 This is part of the Gaussian(R) 16 program.  It is based on
 the Gaussian(R) 09 system (copyright 2009, Gaussian, Inc.),
 the Gaussian(R) 03 system (copyright 2003, Gaussian, Inc.),
 the Gaussian(R) 98 system (copyright 1998, Gaussian, Inc.),
 the Gaussian(R) 94 system (copyright 1995, Gaussian, Inc.),
 the Gaussian 92(TM) system (copyright 1992, Gaussian, Inc.),
 the Gaussian 90(TM) system (copyright 1990, Gaussian, Inc.),
 the Gaussian 88(TM) system (copyright 1988, Gaussian, Inc.),
 the Gaussian 86(TM) system (copyright 1986, Carnegie Mellon
 University), and the Gaussian 82(TM) system (copyright 1983,
 Carnegie Mellon University). Gaussian is a federally registered
 trademark of Gaussian, Inc.
  
 This software contains proprietary and confidential information,
 including trade secrets, belonging to Gaussian, Inc.
  
 This software is provided under written license and may be
 used, copied, transmitted, or stored only in accord with that
 written license.
  
 The following legend is applicable only to US Government
 contracts under FAR:
  
                    RESTRICTED RIGHTS LEGEND
  
 Use, reproduction and disclosure by the US Government is
 subject to restrictions as set forth in subparagraphs (a)
 and (c) of the Commercial Computer Software - Restricted
 Rights clause in FAR 52.227-19.
  
 Gaussian, Inc.
 340 Quinnipiac St., Bldg. 40, Wallingford CT 06492
  
  
 ---------------------------------------------------------------
 Warning -- This program may not be used in any manner that
 competes with the business of Gaussian, Inc. or will provide
 assistance to any competitor of Gaussian, Inc.  The licensee
 of this program is prohibited from giving any competitor of
 Gaussian, Inc. access to this program.  By using this program,
 the user acknowledges that Gaussian, Inc. is engaged in the
 business of creating and licensing software in the field of
 computational chemistry and represents and warrants to the
 licensee that it is not a competitor of Gaussian, Inc. and that
 it will not use this program in any manner prohibited above.
 ---------------------------------------------------------------
  

 Cite this work as:
 Gaussian 16, Revision C.01,
 M. J. Frisch, G. W. Trucks, H. B. Schlegel, G. E. Scuseria, 
 M. A. Robb, J. R. Cheeseman, G. Scalmani, V. Barone, 
 G. A. Petersson, H. Nakatsuji, X. Li, M. Caricato, A. V. Marenich, 
 J. Bloino, B. G. Janesko, R. Gomperts, B. Mennucci, H. P. Hratchian, 
 J. V. Ortiz, A. F. Izmaylov, J. L. Sonnenberg, D. Williams-Young, 
 F. Ding, F. Lipparini, F. Egidi, J. Goings, B. Peng, A. Petrone, 
 T. Henderson, D. Ranasinghe, V. G. Zakrzewski, J. Gao, N. Rega, 
 G. Zheng, W. Liang, M. Hada, M. Ehara, K. Toyota, R. Fukuda, 
 J. Hasegawa, M. Ishida, T. Nakajima, Y. Honda, O. Kitao, H. Nakai, 
 T. Vreven, K. Throssell, J. A. Montgomery, Jr., J. E. Peralta, 
 F. Ogliaro, M. J. Bearpark, J. J. Heyd, E. N. Brothers, K. N. Kudin, 
 V. N. Staroverov, T. A. Keith, R. Kobayashi, J. Normand, 
 K. Raghavachari, A. P. Rendell, J. C. Burant, S. S. Iyengar, 
 J. Tomasi, M. Cossi, J. M. Millam, M. Klene, C. Adamo, R. Cammi, 
 J. W. Ochterski, R. L. Martin, K. Morokuma, O. Farkas, 
 J. B. Foresman, and D. J. Fox, Gaussian, Inc., Wallingford CT, 2019.
 
 ******************************************
 Gaussian 16:  AS64L-G16RevC.01  3-Jul-2019
                14-Jun-2021 
 ******************************************
 %nprocshared=4
 Will use up to    4 processors via shared memory.
 -----------------------------------------------------------
 # opt td=(root=3) cam-b3lyp/6-311+g(2d,p) geom=connectivity
 -----------------------------------------------------------
 1/18=20,19=15,26=3,38=1,57=2/1,3;
 2/9=110,12=2,17=6,18=5,40=1/2;
 3/5=4,6=6,7=112,11=9,25=1,30=1,71=1,74=-40/1,2,3,8;
 4//1;
 5/5=2,38=5/2;
 8/6=1,10=2,107=3/1;
 9/8=3,15=2,42=1,70=2/14;
 10/5=4,28=3/2;
 6/7=2,8=2,9=2,10=2/1;
 7/12=6,13=5,14=3/1,2,3,16;
 1/18=20,19=15,26=3/3(2);
 2/9=110/2;
 99//99;
 2/9=110/2;
 3/5=4,6=6,7=112,11=9,25=1,30=1,71=1,74=-40/1,2,3,8;
 4/5=5,16=3,69=1/1;
 5/5=2,38=5/2;
 8/6=1,10=2,107=3/1;
 9/8=3,15=2,42=1,49=4,70=2/14;
 10/5=4,28=3/2;
 7/12=6,13=5,14=3/1,2,3,16;
 1/18=20,19=15,26=3/3(-8);
 2/9=110/2;
 6/7=2,8=2,9=2,10=2/1;
 99/9=10/99;
 ------------------
 cc-pvtzOptTemplate
 ------------------
 Symbolic Z-matrix:
 Charge =  0 Multiplicity = 1
 C                    -2.15106   0.68921   0.00009 
 C                    -2.12793  -0.71582   0.00008 
 C                    -0.9323   -1.4131   -0.00001 
 C                     0.24691  -0.6702   -0.00004 
 C                     0.24819   0.7483    0. 
 C                    -0.97947   1.42353   0.00003 
 N                     1.56177  -1.07759  -0.00029 
 C                     1.62013   1.1629   -0.00016 
 C                     2.38201   0.03081   0.00025 
 H                     1.87632  -2.03001   0.00044 
 H                     1.99217   2.17301  -0.00035 
 H                     3.45255  -0.08243   0.00041 
 H                    -3.06159  -1.26202   0.00009 
 H                    -0.91725  -2.49534  -0.00007 
 H                    -3.1042    1.20079   0.00009 
 H                    -1.00935   2.50542  -0.00002 
 

 GradGradGradGradGradGradGradGradGradGradGradGradGradGradGradGradGradGrad
 Berny optimization.
 Initialization pass.
                           ----------------------------
                           !    Initial Parameters    !
                           ! (Angstroms and Degrees)  !
 --------------------------                            --------------------------
 ! Name  Definition              Value          Derivative Info.                !
 --------------------------------------------------------------------------------
 ! R1    R(1,2)                  1.4052         estimate D2E/DX2                !
 ! R2    R(1,6)                  1.3827         estimate D2E/DX2                !
 ! R3    R(1,15)                 1.0818         estimate D2E/DX2                !
 ! R4    R(2,3)                  1.3841         estimate D2E/DX2                !
 ! R5    R(2,13)                 1.0817         estimate D2E/DX2                !
 ! R6    R(3,4)                  1.3937         estimate D2E/DX2                !
 ! R7    R(3,14)                 1.0823         estimate D2E/DX2                !
 ! R8    R(4,5)                  1.4185         estimate D2E/DX2                !
 ! R9    R(4,7)                  1.3765         estimate D2E/DX2                !
 ! R10   R(5,6)                  1.4011         estimate D2E/DX2                !
 ! R11   R(5,8)                  1.4332         estimate D2E/DX2                !
 ! R12   R(6,16)                 1.0823         estimate D2E/DX2                !
 ! R13   R(7,9)                  1.3789         estimate D2E/DX2                !
 ! R14   R(7,10)                 1.003          estimate D2E/DX2                !
 ! R15   R(8,9)                  1.3646         estimate D2E/DX2                !
 ! R16   R(8,11)                 1.0764         estimate D2E/DX2                !
 ! R17   R(9,12)                 1.0765         estimate D2E/DX2                !
 ! A1    A(2,1,6)              121.1349         estimate D2E/DX2                !
 ! A2    A(2,1,15)             119.1671         estimate D2E/DX2                !
 ! A3    A(6,1,15)             119.698          estimate D2E/DX2                !
 ! A4    A(1,2,3)              121.1938         estimate D2E/DX2                !
 ! A5    A(1,2,13)             119.3846         estimate D2E/DX2                !
 ! A6    A(3,2,13)             119.4217         estimate D2E/DX2                !
 ! A7    A(2,3,4)              117.5387         estimate D2E/DX2                !
 ! A8    A(2,3,14)             121.0469         estimate D2E/DX2                !
 ! A9    A(4,3,14)             121.4144         estimate D2E/DX2                !
 ! A10   A(3,4,5)              122.2626         estimate D2E/DX2                !
 ! A11   A(3,4,7)              130.5743         estimate D2E/DX2                !
 ! A12   A(5,4,7)              107.163          estimate D2E/DX2                !
 ! A13   A(4,5,6)              118.7594         estimate D2E/DX2                !
 ! A14   A(4,5,8)              106.8666         estimate D2E/DX2                !
 ! A15   A(6,5,8)              134.374          estimate D2E/DX2                !
 ! A16   A(1,6,5)              119.1105         estimate D2E/DX2                !
 ! A17   A(1,6,16)             120.4966         estimate D2E/DX2                !
 ! A18   A(5,6,16)             120.3928         estimate D2E/DX2                !
 ! A19   A(4,7,9)              109.2874         estimate D2E/DX2                !
 ! A20   A(4,7,10)             125.4909         estimate D2E/DX2                !
 ! A21   A(9,7,10)             125.2217         estimate D2E/DX2                !
 ! A22   A(5,8,9)              107.125          estimate D2E/DX2                !
 ! A23   A(5,8,11)             127.0344         estimate D2E/DX2                !
 ! A24   A(9,8,11)             125.8405         estimate D2E/DX2                !
 ! A25   A(7,9,8)              109.5578         estimate D2E/DX2                !
 ! A26   A(7,9,12)             120.4645         estimate D2E/DX2                !
 ! A27   A(8,9,12)             129.9776         estimate D2E/DX2                !
 ! D1    D(6,1,2,3)             -0.0008         estimate D2E/DX2                !
 ! D2    D(6,1,2,13)          -179.9981         estimate D2E/DX2                !
 ! D3    D(15,1,2,3)           179.996          estimate D2E/DX2                !
 ! D4    D(15,1,2,13)           -0.0013         estimate D2E/DX2                !
 ! D5    D(2,1,6,5)             -0.0018         estimate D2E/DX2                !
 ! D6    D(2,1,6,16)           179.9965         estimate D2E/DX2                !
 ! D7    D(15,1,6,5)          -179.9986         estimate D2E/DX2                !
 ! D8    D(15,1,6,16)           -0.0003         estimate D2E/DX2                !
 ! D9    D(1,2,3,4)              0.002          estimate D2E/DX2                !
 ! D10   D(1,2,3,14)          -179.9968         estimate D2E/DX2                !
 ! D11   D(13,2,3,4)           179.9992         estimate D2E/DX2                !
 ! D12   D(13,2,3,14)            0.0005         estimate D2E/DX2                !
 ! D13   D(2,3,4,5)             -0.0005         estimate D2E/DX2                !
 ! D14   D(2,3,4,7)           -179.9911         estimate D2E/DX2                !
 ! D15   D(14,3,4,5)           179.9982         estimate D2E/DX2                !
 ! D16   D(14,3,4,7)             0.0076         estimate D2E/DX2                !
 ! D17   D(3,4,5,6)             -0.002          estimate D2E/DX2                !
 ! D18   D(3,4,5,8)           -179.9955         estimate D2E/DX2                !
 ! D19   D(7,4,5,6)            179.9905         estimate D2E/DX2                !
 ! D20   D(7,4,5,8)             -0.003          estimate D2E/DX2                !
 ! D21   D(3,4,7,9)           -179.98           estimate D2E/DX2                !
 ! D22   D(3,4,7,10)            -0.0649         estimate D2E/DX2                !
 ! D23   D(5,4,7,9)              0.0284         estimate D2E/DX2                !
 ! D24   D(5,4,7,10)           179.9434         estimate D2E/DX2                !
 ! D25   D(4,5,6,1)              0.0031         estimate D2E/DX2                !
 ! D26   D(4,5,6,16)          -179.9951         estimate D2E/DX2                !
 ! D27   D(8,5,6,1)            179.9944         estimate D2E/DX2                !
 ! D28   D(8,5,6,16)            -0.0038         estimate D2E/DX2                !
 ! D29   D(4,5,8,9)             -0.0234         estimate D2E/DX2                !
 ! D30   D(4,5,8,11)           179.9883         estimate D2E/DX2                !
 ! D31   D(6,5,8,9)            179.9846         estimate D2E/DX2                !
 ! D32   D(6,5,8,11)            -0.0037         estimate D2E/DX2                !
 ! D33   D(4,7,9,8)             -0.0444         estimate D2E/DX2                !
 ! D34   D(4,7,9,12)           179.9847         estimate D2E/DX2                !
 ! D35   D(10,7,9,8)          -179.9597         estimate D2E/DX2                !
 ! D36   D(10,7,9,12)            0.0693         estimate D2E/DX2                !
 ! D37   D(5,8,9,7)              0.0414         estimate D2E/DX2                !
 ! D38   D(5,8,9,12)          -179.9913         estimate D2E/DX2                !
 ! D39   D(11,8,9,7)          -179.9702         estimate D2E/DX2                !
 ! D40   D(11,8,9,12)           -0.0029         estimate D2E/DX2                !
 --------------------------------------------------------------------------------
 Trust Radius=3.00D-01 FncErr=1.00D-07 GrdErr=1.00D-06 EigMax=2.50D+02 EigMin=1.00D-04
 Number of steps in this run=     94 maximum allowed number of steps=    100.
 GradGradGradGradGradGradGradGradGradGradGradGradGradGradGradGradGradGrad

                          Input orientation:                          
 ---------------------------------------------------------------------
 Center     Atomic      Atomic             Coordinates (Angstroms)
 Number     Number       Type             X           Y           Z
 ---------------------------------------------------------------------
      1          6           0       -2.151063    0.689208    0.000088
      2          6           0       -2.127927   -0.715818    0.000075
      3          6           0       -0.932297   -1.413100   -0.000011
      4          6           0        0.246911   -0.670201   -0.000042
      5          6           0        0.248193    0.748299    0.000000
      6          6           0       -0.979474    1.423526    0.000032
      7          7           0        1.561774   -1.077592   -0.000285
      8          6           0        1.620133    1.162900   -0.000157
      9          6           0        2.382013    0.030806    0.000248
     10          1           0        1.876315   -2.030011    0.000438
     11          1           0        1.992173    2.173010   -0.000348
     12          1           0        3.452549   -0.082425    0.000408
     13          1           0       -3.061594   -1.262020    0.000088
     14          1           0       -0.917252   -2.495342   -0.000073
     15          1           0       -3.104203    1.200785    0.000090
     16          1           0       -1.009348    2.505421   -0.000015
 ---------------------------------------------------------------------
                    Distance matrix (angstroms):
                    1          2          3          4          5
     1  C    0.000000
     2  C    1.405216   0.000000
     3  C    2.430039   1.384100   0.000000
     4  C    2.756496   2.375276   1.393711   0.000000
     5  C    2.399984   2.790983   2.462763   1.418501   0.000000
     6  C    1.382694   2.428114   2.837018   2.426461   1.401106
     7  N    4.111781   3.707395   2.516536   1.376529   2.249305
     8  C    3.800829   4.192557   3.626386   2.290414   1.433218
     9  C    4.580641   4.571324   3.615178   2.247236   2.251218
    10  H    4.859416   4.214387   2.875566   2.122273   3.220216
    11  H    4.400917   5.031953   4.627387   3.336134   2.251948
    12  H    5.656491   5.616307   4.582311   3.259079   3.310287
    13  H    2.153220   1.081698   2.134650   3.361020   3.872476
    14  H    3.415208   2.152310   1.082347   2.164813   3.446661
    15  H    1.081752   2.150926   3.398466   3.838040   3.382795
    16  H    2.145261   3.409927   3.919278   3.415079   2.160761
                    6          7          8          9         10
     6  C    0.000000
     7  N    3.565604   0.000000
     8  C    2.612639   2.241252   0.000000
     9  C    3.638580   1.378890   1.364587   0.000000
    10  H    4.481345   1.003015   3.203172   2.121956   0.000000
    11  H    3.064704   3.278972   1.076446   2.177387   4.204618
    12  H    4.680888   2.136677   2.215532   1.076508   2.505515
    13  H    3.398144   4.627045   5.272457   5.595021   4.997275
    14  H    3.919362   2.855798   4.452085   4.155307   2.832058
    15  H    2.136372   5.192528   4.724488   5.609583   5.936632
    16  H    1.082307   4.410062   2.952378   4.198220   5.375611
                   11         12         13         14         15
    11  H    0.000000
    12  H    2.686947   0.000000
    13  H    6.110646   6.620083   0.000000
    14  H    5.500751   4.991726   2.473719   0.000000
    15  H    5.188282   6.681139   2.463174   4.294661   0.000000
    16  H    3.019872   5.158049   4.290143   5.001611   2.467892
                   16
    16  H    0.000000
 Stoichiometry    C8H7N
 Framework group  C1[X(C8H7N)]
 Deg. of freedom    42
 Full point group                 C1      NOp   1
 Largest Abelian subgroup         C1      NOp   1
 Largest concise Abelian subgroup C1      NOp   1
                         Standard orientation:                         
 ---------------------------------------------------------------------
 Center     Atomic      Atomic             Coordinates (Angstroms)
 Number     Number       Type             X           Y           Z
 ---------------------------------------------------------------------
      1          6           0       -2.151063    0.689208    0.000088
      2          6           0       -2.127927   -0.715818    0.000075
      3          6           0       -0.932297   -1.413100   -0.000011
      4          6           0        0.246911   -0.670201   -0.000042
      5          6           0        0.248193    0.748299    0.000000
      6          6           0       -0.979474    1.423526    0.000032
      7          7           0        1.561774   -1.077592   -0.000285
      8          6           0        1.620133    1.162900   -0.000157
      9          6           0        2.382013    0.030806    0.000248
     10          1           0        1.876315   -2.030011    0.000438
     11          1           0        1.992173    2.173010   -0.000348
     12          1           0        3.452549   -0.082425    0.000408
     13          1           0       -3.061594   -1.262020    0.000088
     14          1           0       -0.917252   -2.495342   -0.000073
     15          1           0       -3.104203    1.200785    0.000090
     16          1           0       -1.009348    2.505421   -0.000015
 ---------------------------------------------------------------------
 Rotational constants (GHZ):           3.9080822           1.6429452           1.1566805
 Standard basis: 6-311+G(2d,p) (5D, 7F)
 There are   303 symmetry adapted cartesian basis functions of A   symmetry.
 There are   285 symmetry adapted basis functions of A   symmetry.
   285 basis functions,   434 primitive gaussians,   303 cartesian basis functions
    31 alpha electrons       31 beta electrons
       nuclear repulsion energy       401.3368668897 Hartrees.
 NAtoms=   16 NActive=   16 NUniq=   16 SFac= 1.00D+00 NAtFMM=   60 NAOKFM=F Big=F
 Integral buffers will be    131072 words long.
 Raffenetti 1 integral format.
 Two-electron integral symmetry is turned on.
 One-electron integrals computed using PRISM.
 NBasis=   285 RedAO= T EigKep=  2.58D-06  NBF=   285
 NBsUse=   284 1.00D-06 EigRej=  8.63D-07 NBFU=   284
 ExpMin= 4.38D-02 ExpMax= 6.29D+03 ExpMxC= 9.49D+02 IAcc=3 IRadAn=         5 AccDes= 0.00D+00
 Harris functional with IExCor=20419 and IRadAn=       5 diagonalized for initial guess.
 HarFok:  IExCor=20419 AccDes= 0.00D+00 IRadAn=         5 IDoV= 1 UseB2=F ITyADJ=14
 ICtDFT=  3500011 ScaDFX=  1.000000  1.000000  1.000000  1.000000
 FoFCou: FMM=F IPFlag=           0 FMFlag=      100000 FMFlg1=           0
         NFxFlg=           0 DoJE=T BraDBF=F KetDBF=T FulRan=T
         wScrn=  0.000000 ICntrl=       500 IOpCl=  0 I1Cent=   200000004 NGrid=           0
         NMat0=    1 NMatS0=      1 NMatT0=    0 NMatD0=    1 NMtDS0=    0 NMtDT0=    0
 Petite list used in FoFCou.
 Requested convergence on RMS density matrix=1.00D-08 within 128 cycles.
 Requested convergence on MAX density matrix=1.00D-06.
 Requested convergence on             energy=1.00D-06.
 No special actions if energy rises.
 SCF Done:  E(RCAM-B3LYP) =  -363.717133734     A.U. after   14 cycles
            NFock= 14  Conv=0.51D-08     -V/T= 2.0036
 DoSCS=F DFT=T ScalE2(SS,OS)=  1.000000  1.000000
 ExpMin= 4.38D-02 ExpMax= 6.29D+03 ExpMxC= 9.49D+02 IAcc=3 IRadAn=         5 AccDes= 0.00D+00
 HarFok:  IExCor=  205 AccDes= 0.00D+00 IRadAn=         5 IDoV=-2 UseB2=F ITyADJ=14
 ICtDFT= 12500011 ScaDFX=  1.000000  1.000000  1.000000  1.000000
 Range of M.O.s used for correlation:    10   284
 NBasis=   285 NAE=    31 NBE=    31 NFC=     9 NFV=     0
 NROrb=    275 NOA=    22 NOB=    22 NVA=   253 NVB=   253

 **** Warning!!: The largest alpha MO coefficient is  0.22016768D+03

 Orbital symmetries:
       Occupied  (A) (A) (A) (A) (A) (A) (A) (A) (A) (A) (A) (A)
                 (A) (A) (A) (A) (A) (A) (A) (A) (A) (A) (A) (A)
                 (A) (A) (A) (A) (A) (A) (A)
       Virtual   (A) (A) (A) (A) (A) (A) (A) (A) (A) (A) (A) (A)
                 (A) (A) (A) (A) (A) (A) (A) (A) (A) (A) (A) (A)
                 (A) (A) (A) (A) (A) (A) (A) (A) (A) (A) (A) (A)
                 (A) (A) (A) (A) (A) (A) (A) (A) (A) (A) (A) (A)
                 (A) (A) (A) (A) (A) (A) (A) (A) (A) (A) (A) (A)
                 (A) (A) (A) (A) (A) (A) (A) (A) (A) (A) (A) (A)
                 (A) (A) (A) (A) (A) (A) (A) (A) (A) (A) (A) (A)
                 (A) (A) (A) (A) (A) (A) (A) (A) (A) (A) (A) (A)
                 (A) (A) (A) (A) (A) (A) (A) (A) (A) (A) (A) (A)
                 (A) (A) (A) (A) (A) (A) (A) (A) (A) (A) (A) (A)
                 (A) (A) (A) (A) (A) (A) (A) (A) (A) (A) (A) (A)
                 (A) (A) (A) (A) (A) (A) (A) (A) (A) (A) (A) (A)
                 (A) (A) (A) (A) (A) (A) (A) (A) (A) (A) (A) (A)
                 (A) (A) (A) (A) (A) (A) (A) (A) (A) (A) (A) (A)
                 (A) (A) (A) (A) (A) (A) (A) (A) (A) (A) (A) (A)
                 (A) (A) (A) (A) (A) (A) (A) (A) (A) (A) (A) (A)
                 (A) (A) (A) (A) (A) (A) (A) (A) (A) (A) (A) (A)
                 (A) (A) (A) (A) (A) (A) (A) (A) (A) (A) (A) (A)
                 (A) (A) (A) (A) (A) (A) (A) (A) (A) (A) (A) (A)
                 (A) (A) (A) (A) (A) (A) (A) (A) (A) (A) (A) (A)
                 (A) (A) (A) (A) (A) (A) (A) (A) (A) (A) (A) (A)
                 (A)
    12 initial guesses have been made.
 Convergence on wavefunction:    0.000001000000000
 Iteration     1 Dimension    12 NMult     0 NNew     12
 CISAX will form    12 AO SS matrices at one time.
 New state      1 was old state      3
 New state      3 was old state      1
 Iteration     2 Dimension    18 NMult    12 NNew      6
 New state      1 was old state      3
 New state      2 was old state      1
 New state      3 was old state      2
 Iteration     3 Dimension    24 NMult    18 NNew      6
 Iteration     4 Dimension    30 NMult    24 NNew      6
 Iteration     5 Dimension    36 NMult    30 NNew      6
 Iteration     6 Dimension    42 NMult    36 NNew      6
 Iteration     7 Dimension    48 NMult    42 NNew      6
 Iteration     8 Dimension    54 NMult    48 NNew      6
 Iteration     9 Dimension    60 NMult    54 NNew      6
 Iteration    10 Dimension    66 NMult    60 NNew      6
 Iteration    11 Dimension    72 NMult    66 NNew      6
 Iteration    12 Dimension    74 NMult    72 NNew      2
 ***********************************************************************
 Excited states from <AA,BB:AA,BB> singles matrix:
 ***********************************************************************
 
 Ground to excited state transition densities written to RWF  633
 Ground to excited state transition electric dipole moments (Au):
       state          X           Y           Z        Dip. S.      Osc.
         1        -0.1273      0.5990     -0.0001      0.3750      0.0459
         2        -0.8602      0.2811     -0.0002      0.8189      0.1011
         3         0.0008     -0.0005     -0.1528      0.0233      0.0030
 Ground to excited state transition velocity dipole moments (Au):
       state          X           Y           Z        Dip. S.      Osc.
         1         0.0227     -0.1142      0.0000      0.0136      0.0493
         2         0.1590     -0.0549      0.0000      0.0283      0.1019
         3        -0.0001      0.0001      0.0274      0.0008      0.0026
 Ground to excited state transition magnetic dipole moments (Au):
       state          X           Y           Z
         1         0.0003      0.0000      0.1903
         2         0.0002     -0.0002      0.0558
         3         0.1234     -0.1085      0.0000
 Ground to excited state transition velocity quadrupole moments (Au):
       state          XX          YY          ZZ          XY          XZ          YZ
         1         0.1547     -0.0405     -0.0017      0.0383      0.0001      0.0001
         2         0.2410     -0.1711      0.0278      0.0148      0.0002      0.0000
         3        -0.0003      0.0002      0.0001      0.0000      0.1022      0.0542
 <0|del|b> * <b|rxdel|0> + <0|del|b> * <b|delr+rdel|0>
 Rotatory Strengths (R) in cgs (10**-40 erg-esu-cm/Gauss)
       state          XX          YY          ZZ    R(velocity)    E-M Angle
         1         0.0145      0.0211     -0.0100      0.0086       90.00
         2         0.0534      0.0613      0.0438      0.0528       90.00
         3        -0.0417     -0.0472     -0.0197     -0.0362       90.00
 1/2[<0|r|b>*<b|rxdel|0> + (<0|rxdel|b>*<b|r|0>)*]
 Rotatory Strengths (R) in cgs (10**-40 erg-esu-cm/Gauss)
       state          XX          YY          ZZ     R(length)
         1         0.0258     -0.0110      0.0120      0.0089
         2         0.0978      0.0495      0.0088      0.0520
         3        -0.0683     -0.0396      0.0006     -0.0358
  1/2[<0|del|b>*<b|r|0> + (<0|r|b>*<b|del|0>)*] (Au)
       state          X           Y           Z        Dip. S.   Osc.(frdel)
         1        -0.0029     -0.0684     -0.0000      0.0713      0.0475
         2        -0.1368     -0.0154     -0.0000      0.1522      0.1015
         3        -0.0000     -0.0000     -0.0042      0.0042      0.0028

 Excitation energies and oscillator strengths:
 
 Excited State   1:      Singlet-A      4.9917 eV  248.38 nm  f=0.0459  <S**2>=0.000
      30 -> 32        -0.44765
      30 -> 36         0.12979
      31 -> 32         0.45880
      31 -> 36         0.23198
 
 Excited State   2:      Singlet-A      5.0370 eV  246.15 nm  f=0.1011  <S**2>=0.000
      30 -> 32         0.38219
      30 -> 36         0.13899
      31 -> 32         0.48982
      31 -> 36        -0.28208
 
 Excited State   3:      Singlet-A      5.3056 eV  233.69 nm  f=0.0030  <S**2>=0.000
      31 -> 33         0.68565
 This state for optimization and/or second-order correction.
 Total Energy, E(TD-HF/TD-DFT) =  -363.522156823    
 Copying the excited state density for this state as the 1-particle RhoCI density.
 SavETr:  write IOETrn=   770 NScale= 10 NData=  16 NLR=1 NState=    3 LETran=      64.
          IDoAtm=1111111111111111
          Differentiating once with respect to electric field.
                with respect to dipole field.
          Differentiating once with respect to nuclear coordinates.
          There are     1 degrees of freedom in the 1st order CPHF.  IDoFFX=0 NUNeed=     1.
 LinEq1:  Iter=  0 NonCon=     1 RMS=7.40D-03 Max=1.29D-01 NDo=     1
 AX will form     1 AO Fock derivatives at one time.
 LinEq1:  Iter=  1 NonCon=     1 RMS=2.70D-03 Max=8.66D-02 NDo=     1
 LinEq1:  Iter=  2 NonCon=     1 RMS=1.72D-03 Max=8.21D-02 NDo=     1
 LinEq1:  Iter=  3 NonCon=     1 RMS=6.86D-04 Max=1.73D-02 NDo=     1
 LinEq1:  Iter=  4 NonCon=     1 RMS=3.47D-04 Max=1.00D-02 NDo=     1
 LinEq1:  Iter=  5 NonCon=     1 RMS=1.67D-04 Max=4.18D-03 NDo=     1
 LinEq1:  Iter=  6 NonCon=     1 RMS=8.59D-05 Max=3.30D-03 NDo=     1
 LinEq1:  Iter=  7 NonCon=     1 RMS=4.94D-05 Max=1.92D-03 NDo=     1
 LinEq1:  Iter=  8 NonCon=     1 RMS=1.21D-05 Max=2.93D-04 NDo=     1
 LinEq1:  Iter=  9 NonCon=     1 RMS=5.05D-06 Max=1.47D-04 NDo=     1
 LinEq1:  Iter= 10 NonCon=     1 RMS=2.38D-06 Max=4.32D-05 NDo=     1
 LinEq1:  Iter= 11 NonCon=     1 RMS=9.23D-07 Max=2.37D-05 NDo=     1
 LinEq1:  Iter= 12 NonCon=     1 RMS=4.66D-07 Max=1.72D-05 NDo=     1
 LinEq1:  Iter= 13 NonCon=     1 RMS=1.53D-07 Max=4.02D-06 NDo=     1
 LinEq1:  Iter= 14 NonCon=     1 RMS=7.08D-08 Max=1.31D-06 NDo=     1
 LinEq1:  Iter= 15 NonCon=     1 RMS=3.05D-08 Max=1.02D-06 NDo=     1
 LinEq1:  Iter= 16 NonCon=     1 RMS=9.35D-09 Max=2.96D-07 NDo=     1
 LinEq1:  Iter= 17 NonCon=     1 RMS=4.60D-09 Max=7.72D-08 NDo=     1
 LinEq1:  Iter= 18 NonCon=     1 RMS=1.79D-09 Max=3.30D-08 NDo=     1
 LinEq1:  Iter= 19 NonCon=     1 RMS=3.99D-10 Max=4.19D-09 NDo=     1
 LinEq1:  Iter= 20 NonCon=     1 RMS=1.43D-10 Max=3.95D-09 NDo=     1
 LinEq1:  Iter= 21 NonCon=     0 RMS=6.49D-11 Max=7.50D-10 NDo=     1
 Linear equations converged to 1.000D-10 1.000D-09 after    21 iterations.
 End of Minotr F.D. properties file   721 does not exist.
 End of Minotr F.D. properties file   722 does not exist.
 End of Minotr F.D. properties file   788 does not exist.

 **********************************************************************

            Population analysis using the SCF Density.

 **********************************************************************

 Orbital symmetries:
       Occupied  (A) (A) (A) (A) (A) (A) (A) (A) (A) (A) (A) (A)
                 (A) (A) (A) (A) (A) (A) (A) (A) (A) (A) (A) (A)
                 (A) (A) (A) (A) (A) (A) (A)
       Virtual   (A) (A) (A) (A) (A) (A) (A) (A) (A) (A) (A) (A)
                 (A) (A) (A) (A) (A) (A) (A) (A) (A) (A) (A) (A)
                 (A) (A) (A) (A) (A) (A) (A) (A) (A) (A) (A) (A)
                 (A) (A) (A) (A) (A) (A) (A) (A) (A) (A) (A) (A)
                 (A) (A) (A) (A) (A) (A) (A) (A) (A) (A) (A) (A)
                 (A) (A) (A) (A) (A) (A) (A) (A) (A) (A) (A) (A)
                 (A) (A) (A) (A) (A) (A) (A) (A) (A) (A) (A) (A)
                 (A) (A) (A) (A) (A) (A) (A) (A) (A) (A) (A) (A)
                 (A) (A) (A) (A) (A) (A) (A) (A) (A) (A) (A) (A)
                 (A) (A) (A) (A) (A) (A) (A) (A) (A) (A) (A) (A)
                 (A) (A) (A) (A) (A) (A) (A) (A) (A) (A) (A) (A)
                 (A) (A) (A) (A) (A) (A) (A) (A) (A) (A) (A) (A)
                 (A) (A) (A) (A) (A) (A) (A) (A) (A) (A) (A) (A)
                 (A) (A) (A) (A) (A) (A) (A) (A) (A) (A) (A) (A)
                 (A) (A) (A) (A) (A) (A) (A) (A) (A) (A) (A) (A)
                 (A) (A) (A) (A) (A) (A) (A) (A) (A) (A) (A) (A)
                 (A) (A) (A) (A) (A) (A) (A) (A) (A) (A) (A) (A)
                 (A) (A) (A) (A) (A) (A) (A) (A) (A) (A) (A) (A)
                 (A) (A) (A) (A) (A) (A) (A) (A) (A) (A) (A) (A)
                 (A) (A) (A) (A) (A) (A) (A) (A) (A) (A) (A) (A)
                 (A) (A) (A) (A) (A) (A) (A) (A) (A) (A) (A) (A)
                 (A)
 The electronic state is 1-A.
 Alpha  occ. eigenvalues --  -14.43047 -10.27860 -10.27677 -10.24514 -10.24159
 Alpha  occ. eigenvalues --  -10.24041 -10.23963 -10.23422 -10.23221  -1.06820
 Alpha  occ. eigenvalues --   -0.92656  -0.86744  -0.81855  -0.80009  -0.70333
 Alpha  occ. eigenvalues --   -0.67194  -0.65972  -0.61584  -0.55530  -0.54440
 Alpha  occ. eigenvalues --   -0.50908  -0.50013  -0.49864  -0.48249  -0.46079
 Alpha  occ. eigenvalues --   -0.42309  -0.40603  -0.40150  -0.34391  -0.27902
 Alpha  occ. eigenvalues --   -0.26212
 Alpha virt. eigenvalues --    0.02115   0.02244   0.03968   0.04417   0.05895
 Alpha virt. eigenvalues --    0.06014   0.06186   0.07698   0.08221   0.08867
 Alpha virt. eigenvalues --    0.08907   0.09149   0.10840   0.11483   0.12826
 Alpha virt. eigenvalues --    0.13010   0.13767   0.14920   0.15975   0.16070
 Alpha virt. eigenvalues --    0.17748   0.18071   0.19047   0.19317   0.19603
 Alpha virt. eigenvalues --    0.20599   0.20676   0.21398   0.21889   0.22013
 Alpha virt. eigenvalues --    0.22960   0.24073   0.24178   0.24387   0.25088
 Alpha virt. eigenvalues --    0.25372   0.26370   0.26578   0.27359   0.28151
 Alpha virt. eigenvalues --    0.28756   0.28993   0.29506   0.30528   0.31418
 Alpha virt. eigenvalues --    0.31990   0.33616   0.35562   0.38278   0.38782
 Alpha virt. eigenvalues --    0.40837   0.44726   0.47250   0.48208   0.50899
 Alpha virt. eigenvalues --    0.53554   0.54566   0.56154   0.57332   0.57851
 Alpha virt. eigenvalues --    0.58419   0.59093   0.59650   0.60415   0.61127
 Alpha virt. eigenvalues --    0.61940   0.63218   0.64091   0.66052   0.66829
 Alpha virt. eigenvalues --    0.68668   0.69077   0.69447   0.70531   0.71382
 Alpha virt. eigenvalues --    0.71663   0.73868   0.75339   0.75504   0.77602
 Alpha virt. eigenvalues --    0.78497   0.79313   0.79628   0.80264   0.82792
 Alpha virt. eigenvalues --    0.83081   0.84678   0.85462   0.86367   0.86562
 Alpha virt. eigenvalues --    0.87964   0.88419   0.89325   0.90866   0.91635
 Alpha virt. eigenvalues --    0.91800   0.92508   0.93700   0.96812   0.97239
 Alpha virt. eigenvalues --    0.98645   1.01385   1.05977   1.09330   1.12870
 Alpha virt. eigenvalues --    1.16039   1.17300   1.19698   1.20272   1.21440
 Alpha virt. eigenvalues --    1.24522   1.26040   1.26801   1.31910   1.32913
 Alpha virt. eigenvalues --    1.33173   1.36036   1.36834   1.38308   1.39009
 Alpha virt. eigenvalues --    1.39452   1.40180   1.43733   1.46460   1.47436
 Alpha virt. eigenvalues --    1.48215   1.52195   1.54572   1.54834   1.57912
 Alpha virt. eigenvalues --    1.62847   1.64198   1.64484   1.65659   1.69009
 Alpha virt. eigenvalues --    1.70686   1.73153   1.75746   1.78708   1.83211
 Alpha virt. eigenvalues --    1.84435   1.89348   1.95208   1.96080   2.00004
 Alpha virt. eigenvalues --    2.02989   2.04401   2.05602   2.12025   2.20212
 Alpha virt. eigenvalues --    2.25112   2.29007   2.35192   2.37524   2.46463
 Alpha virt. eigenvalues --    2.48260   2.54088   2.60044   2.69527   2.71992
 Alpha virt. eigenvalues --    2.72343   2.74177   2.77321   2.78789   2.80588
 Alpha virt. eigenvalues --    2.83211   2.83622   2.86212   2.87107   2.89243
 Alpha virt. eigenvalues --    2.89608   2.92165   2.94736   2.96195   3.00349
 Alpha virt. eigenvalues --    3.06318   3.06499   3.13537   3.15729   3.17888
 Alpha virt. eigenvalues --    3.18118   3.19753   3.22021   3.23469   3.29201
 Alpha virt. eigenvalues --    3.29809   3.33974   3.36376   3.37809   3.37954
 Alpha virt. eigenvalues --    3.41730   3.42642   3.44321   3.45231   3.48279
 Alpha virt. eigenvalues --    3.49279   3.49936   3.51761   3.53943   3.57254
 Alpha virt. eigenvalues --    3.59155   3.61838   3.62380   3.67110   3.67457
 Alpha virt. eigenvalues --    3.68506   3.68739   3.71238   3.72699   3.73058
 Alpha virt. eigenvalues --    3.76593   3.78210   3.81057   3.83008   3.84065
 Alpha virt. eigenvalues --    3.85035   3.86182   3.87782   3.93169   3.96498
 Alpha virt. eigenvalues --    3.99953   4.01377   4.02771   4.04622   4.06681
 Alpha virt. eigenvalues --    4.08371   4.15267   4.16694   4.25276   4.31440
 Alpha virt. eigenvalues --    4.51198   4.62575   4.69853   4.75970   4.85572
 Alpha virt. eigenvalues --    5.06192   5.06986   5.09725   5.13125   5.35519
 Alpha virt. eigenvalues --    5.43673   5.51084   5.61950   5.73258  23.76327
 Alpha virt. eigenvalues --   23.97517  24.09460  24.12427  24.13321  24.25752
 Alpha virt. eigenvalues --   24.30417  24.34037  35.76930
          Condensed to atoms (all electrons):
               1          2          3          4          5          6
     1  C    5.114054   0.437487   0.016427  -0.322367   0.113935   0.415063
     2  C    0.437487   5.000713   0.555027   0.040451  -0.428545   0.125919
     3  C    0.016427   0.555027   5.310376   0.344177  -0.060127   0.095573
     4  C   -0.322367   0.040451   0.344177   5.978974  -0.171670   0.070345
     5  C    0.113935  -0.428545  -0.060127  -0.171670   6.028547  -0.519896
     6  C    0.415063   0.125919   0.095573   0.070345  -0.519896   6.014803
     7  N    0.013274  -0.022871  -0.149623   0.113446   0.101579  -0.007189
     8  C   -0.071055   0.055984  -0.065652   0.149272  -0.282282   0.290690
     9  C   -0.001560  -0.006207   0.028125  -0.119477   0.131621  -0.171234
    10  H   -0.000803   0.000778   0.010644  -0.053087   0.017712  -0.000202
    11  H    0.002115   0.000047  -0.007074   0.011747  -0.037317  -0.015455
    12  H    0.001178  -0.000479  -0.002406  -0.004827   0.024224  -0.001558
    13  H   -0.050968   0.412049  -0.055434   0.016874   0.013660   0.003681
    14  H    0.020413  -0.013064   0.408733  -0.068450  -0.002327  -0.003866
    15  H    0.420508  -0.054688   0.019047  -0.000634   0.034270  -0.076268
    16  H   -0.040068   0.019598  -0.006378   0.027870  -0.026210   0.370114
               7          8          9         10         11         12
     1  C    0.013274  -0.071055  -0.001560  -0.000803   0.002115   0.001178
     2  C   -0.022871   0.055984  -0.006207   0.000778   0.000047  -0.000479
     3  C   -0.149623  -0.065652   0.028125   0.010644  -0.007074  -0.002406
     4  C    0.113446   0.149272  -0.119477  -0.053087   0.011747  -0.004827
     5  C    0.101579  -0.282282   0.131621   0.017712  -0.037317   0.024224
     6  C   -0.007189   0.290690  -0.171234  -0.000202  -0.015455  -0.001558
     7  N    6.612722  -0.063475   0.341226   0.387488   0.007938  -0.035613
     8  C   -0.063475   5.593203   0.356519  -0.002328   0.436620  -0.030603
     9  C    0.341226   0.356519   5.076788  -0.029139  -0.045169   0.408897
    10  H    0.387488  -0.002328  -0.029139   0.418795  -0.000214  -0.003442
    11  H    0.007938   0.436620  -0.045169  -0.000214   0.553905  -0.002670
    12  H   -0.035613  -0.030603   0.408897  -0.003442  -0.002670   0.539503
    13  H   -0.000186   0.002681  -0.000565  -0.000006   0.000000  -0.000001
    14  H   -0.000556  -0.009530   0.007897   0.003641   0.000022   0.000008
    15  H    0.000516  -0.000802   0.000501  -0.000003  -0.000009  -0.000001
    16  H   -0.000932  -0.006329  -0.001222   0.000036   0.002455  -0.000004
              13         14         15         16
     1  C   -0.050968   0.020413   0.420508  -0.040068
     2  C    0.412049  -0.013064  -0.054688   0.019598
     3  C   -0.055434   0.408733   0.019047  -0.006378
     4  C    0.016874  -0.068450  -0.000634   0.027870
     5  C    0.013660  -0.002327   0.034270  -0.026210
     6  C    0.003681  -0.003866  -0.076268   0.370114
     7  N   -0.000186  -0.000556   0.000516  -0.000932
     8  C    0.002681  -0.009530  -0.000802  -0.006329
     9  C   -0.000565   0.007897   0.000501  -0.001222
    10  H   -0.000006   0.003641  -0.000003   0.000036
    11  H    0.000000   0.000022  -0.000009   0.002455
    12  H   -0.000001   0.000008  -0.000001  -0.000004
    13  H    0.583992  -0.006070  -0.005225  -0.000366
    14  H   -0.006070   0.577365  -0.000367   0.000097
    15  H   -0.005225  -0.000367   0.584168  -0.006171
    16  H   -0.000366   0.000097  -0.006171   0.576320
 Mulliken charges:
               1
     1  C   -0.067636
     2  C   -0.122198
     3  C   -0.441435
     4  C   -0.012643
     5  C    1.062824
     6  C   -0.590520
     7  N   -0.297744
     8  C   -0.352913
     9  C    0.022999
    10  H    0.250129
    11  H    0.093060
    12  H    0.107794
    13  H    0.085882
    14  H    0.086054
    15  H    0.085158
    16  H    0.091190
 Sum of Mulliken charges =  -0.00000
 Mulliken charges with hydrogens summed into heavy atoms:
               1
     1  C    0.017522
     2  C   -0.036315
     3  C   -0.355381
     4  C   -0.012643
     5  C    1.062824
     6  C   -0.499331
     7  N   -0.047615
     8  C   -0.259854
     9  C    0.130792
 Electronic spatial extent (au):  <R**2>=           1005.4364
 Charge=             -0.0000 electrons
 Dipole moment (field-independent basis, Debye):
    X=              1.4760    Y=             -1.5205    Z=              0.0010  Tot=              2.1191
 Quadrupole moment (field-independent basis, Debye-Ang):
   XX=            -45.5968   YY=            -44.6709   ZZ=            -58.6911
   XY=             -3.0956   XZ=              0.0029   YZ=             -0.0031
 Traceless Quadrupole moment (field-independent basis, Debye-Ang):
   XX=              4.0562   YY=              4.9820   ZZ=             -9.0382
   XY=             -3.0956   XZ=              0.0029   YZ=             -0.0031
 Octapole moment (field-independent basis, Debye-Ang**2):
  XXX=             14.6315  YYY=            -10.2557  ZZZ=             -0.0008  XYY=              7.7973
  XXY=             -8.2339  XXZ=              0.0073  XZZ=              2.0184  YZZ=             -2.0067
  YYZ=              0.0018  XYZ=             -0.0065
 Hexadecapole moment (field-independent basis, Debye-Ang**3):
 XXXX=           -815.8554 YYYY=           -370.2007 ZZZZ=            -71.6367 XXXY=            -21.5105
 XXXZ=              0.0270 YYYX=            -19.0818 YYYZ=             -0.0138 ZZZX=              0.0079
 ZZZY=             -0.0030 XXYY=           -197.2117 XXZZ=           -188.2162 YYZZ=            -93.0446
 XXYZ=             -0.0126 YYXZ=              0.0083 ZZXY=             -3.9338
 N-N= 4.013368668897D+02 E-N=-1.647850519094D+03  KE= 3.623957636295D+02
 Calling FoFJK, ICntrl=  10005127 FMM=F ISym2X=0 I1Cent= 0 IOpClX= 0 NMat=1 NMatS=1 NMatT=0.
 ***** Axes restored to original set *****
 -------------------------------------------------------------------
 Center     Atomic                   Forces (Hartrees/Bohr)
 Number     Number              X              Y              Z
 -------------------------------------------------------------------
      1        6          -0.006432454   -0.015139669    0.000001989
      2        6          -0.009207400    0.026265403    0.000000732
      3        6           0.029873973   -0.001922507   -0.000011731
      4        6          -0.019341994    0.005391280   -0.000011003
      5        6           0.000258373   -0.005613354   -0.000024742
      6        6           0.007473614    0.002379158   -0.000015819
      7        7           0.025767127    0.060393753    0.000095565
      8        6          -0.034465714    0.015789560    0.000046143
      9        6          -0.009853569   -0.064617449   -0.000101631
     10        1           0.011451373   -0.024436347   -0.000002798
     11        1           0.001243446    0.001842109    0.000004847
     12        1           0.001605171   -0.002236404    0.000006397
     13        1           0.000108225    0.000149986    0.000000963
     14        1           0.001624956    0.001897358    0.000003451
     15        1           0.000257489   -0.000013465    0.000002945
     16        1          -0.000362615   -0.000129411    0.000004692
 -------------------------------------------------------------------
 Cartesian Forces:  Max     0.064617449 RMS     0.016586897

 GradGradGradGradGradGradGradGradGradGradGradGradGradGradGradGradGradGrad
 Berny optimization.
 FormGI is forming the generalized inverse of G from B-inverse, IUseBI=4.
 Internal  Forces:  Max     0.050212318 RMS     0.008423820
 Search for a local minimum.
 Step number   1 out of a maximum of   94
 All quantities printed in internal units (Hartrees-Bohrs-Radians)
 Mixed Optimization -- RFO/linear search
 Second derivative matrix not updated -- first step.
 ITU=  0
     Eigenvalues ---    0.01853   0.01931   0.01986   0.02012   0.02070
     Eigenvalues ---    0.02113   0.02148   0.02153   0.02172   0.02209
     Eigenvalues ---    0.02233   0.02248   0.02338   0.16000   0.16000
     Eigenvalues ---    0.16000   0.16000   0.16000   0.16000   0.16000
     Eigenvalues ---    0.22000   0.22188   0.22662   0.24011   0.24651
     Eigenvalues ---    0.35712   0.35717   0.35783   0.35790   0.36420
     Eigenvalues ---    0.36427   0.37009   0.38432   0.42633   0.43465
     Eigenvalues ---    0.45769   0.46692   0.47162   0.47468   0.47567
     Eigenvalues ---    0.48125   0.50955
 RFO step:  Lambda=-1.25134442D-02 EMin= 1.85287394D-02
 Linear search not attempted -- first point.
 Iteration  1 RMS(Cart)=  0.02523240 RMS(Int)=  0.00012157
 Iteration  2 RMS(Cart)=  0.00015290 RMS(Int)=  0.00003229
 Iteration  3 RMS(Cart)=  0.00000002 RMS(Int)=  0.00003229
 Variable       Old X    -DE/DX   Delta X   Delta X   Delta X     New X
                                 (Linear)    (Quad)   (Total)
    R1        2.65547  -0.01534   0.00000  -0.03218  -0.03221   2.62327
    R2        2.61291   0.00154   0.00000   0.00407   0.00405   2.61696
    R3        2.04421  -0.00023   0.00000  -0.00063  -0.00063   2.04358
    R4        2.61557   0.01703   0.00000   0.03445   0.03444   2.65001
    R5        2.04411  -0.00017   0.00000  -0.00046  -0.00046   2.04366
    R6        2.63373  -0.02125   0.00000  -0.04536  -0.04535   2.58838
    R7        2.04534  -0.00187   0.00000  -0.00507  -0.00507   2.04027
    R8        2.68058  -0.01029   0.00000  -0.02443  -0.02436   2.65621
    R9        2.60126   0.01099   0.00000   0.01919   0.01928   2.62054
   R10        2.64771  -0.00329   0.00000  -0.00714  -0.00713   2.64057
   R11        2.70839  -0.01536   0.00000  -0.03374  -0.03380   2.67459
   R12        2.04526  -0.00012   0.00000  -0.00032  -0.00032   2.04494
   R13        2.60573  -0.05021   0.00000  -0.10098  -0.10096   2.50476
   R14        1.89542   0.02679   0.00000   0.05535   0.05535   1.95077
   R15        2.57870   0.03138   0.00000   0.06011   0.06004   2.63873
   R16        2.03419   0.00216   0.00000   0.00573   0.00573   2.03992
   R17        2.03430   0.00183   0.00000   0.00486   0.00486   2.03917
    A1        2.11420  -0.00483   0.00000  -0.01612  -0.01616   2.09805
    A2        2.07986   0.00253   0.00000   0.00872   0.00873   2.08859
    A3        2.08912   0.00230   0.00000   0.00741   0.00743   2.09655
    A4        2.11523   0.00292   0.00000   0.01531   0.01528   2.13051
    A5        2.08365  -0.00154   0.00000  -0.00810  -0.00809   2.07557
    A6        2.08430  -0.00139   0.00000  -0.00721  -0.00720   2.07710
    A7        2.05144  -0.00090   0.00000  -0.00550  -0.00549   2.04595
    A8        2.11267   0.00214   0.00000   0.01254   0.01253   2.12520
    A9        2.11908  -0.00124   0.00000  -0.00704  -0.00704   2.11204
   A10        2.13389  -0.00205   0.00000  -0.00904  -0.00905   2.12484
   A11        2.27895  -0.00345   0.00000  -0.00905  -0.00914   2.26982
   A12        1.87035   0.00550   0.00000   0.01809   0.01819   1.88853
   A13        2.07274   0.00765   0.00000   0.02515   0.02521   2.09795
   A14        1.86517  -0.00752   0.00000  -0.02353  -0.02357   1.84161
   A15        2.34527  -0.00014   0.00000  -0.00163  -0.00164   2.34363
   A16        2.07887  -0.00280   0.00000  -0.00980  -0.00979   2.06908
   A17        2.10306   0.00103   0.00000   0.00273   0.00273   2.10579
   A18        2.10125   0.00177   0.00000   0.00707   0.00707   2.10832
   A19        1.90743   0.00285   0.00000   0.00352   0.00362   1.91104
   A20        2.19023   0.00162   0.00000   0.01588   0.01583   2.20606
   A21        2.18553  -0.00447   0.00000  -0.01939  -0.01945   2.16608
   A22        1.86968   0.00060   0.00000   0.00947   0.00935   1.87903
   A23        2.21717   0.00024   0.00000  -0.00161  -0.00155   2.21562
   A24        2.19633  -0.00084   0.00000  -0.00786  -0.00780   2.18853
   A25        1.91215  -0.00143   0.00000  -0.00755  -0.00759   1.90456
   A26        2.10250  -0.00138   0.00000  -0.00835  -0.00833   2.09418
   A27        2.26854   0.00281   0.00000   0.01589   0.01591   2.28445
    D1       -0.00001   0.00000   0.00000   0.00004   0.00003   0.00002
    D2       -3.14156  -0.00000   0.00000  -0.00002  -0.00002  -3.14158
    D3        3.14152   0.00000   0.00000   0.00008   0.00008  -3.14159
    D4       -0.00002   0.00000   0.00000   0.00002   0.00002   0.00000
    D5       -0.00003  -0.00000   0.00000  -0.00005  -0.00005  -0.00008
    D6        3.14153   0.00000   0.00000   0.00009   0.00009  -3.14157
    D7       -3.14157  -0.00000   0.00000  -0.00010  -0.00010   3.14152
    D8       -0.00001   0.00000   0.00000   0.00004   0.00004   0.00004
    D9        0.00003   0.00000   0.00000   0.00002   0.00003   0.00006
   D10       -3.14154  -0.00000   0.00000  -0.00008  -0.00008   3.14157
   D11        3.14158   0.00000   0.00000   0.00008   0.00008  -3.14153
   D12        0.00001  -0.00000   0.00000  -0.00003  -0.00003  -0.00002
   D13       -0.00001  -0.00000   0.00000  -0.00007  -0.00006  -0.00007
   D14       -3.14144  -0.00001   0.00000  -0.00008  -0.00008  -3.14151
   D15        3.14156   0.00000   0.00000   0.00004   0.00004  -3.14158
   D16        0.00013  -0.00000   0.00000   0.00003   0.00003   0.00016
   D17       -0.00004   0.00000   0.00000   0.00005   0.00004   0.00001
   D18       -3.14151   0.00000   0.00000  -0.00006  -0.00006  -3.14158
   D19        3.14143   0.00000   0.00000   0.00006   0.00005   3.14148
   D20       -0.00005   0.00000   0.00000  -0.00005  -0.00006  -0.00011
   D21       -3.14124  -0.00001   0.00000  -0.00049  -0.00050   3.14144
   D22       -0.00113   0.00001   0.00000   0.00032   0.00032  -0.00082
   D23        0.00049  -0.00001   0.00000  -0.00050  -0.00051  -0.00002
   D24        3.14060   0.00001   0.00000   0.00031   0.00031   3.14091
   D25        0.00005  -0.00000   0.00000   0.00001   0.00002   0.00007
   D26       -3.14151  -0.00000   0.00000  -0.00013  -0.00012   3.14155
   D27        3.14150   0.00000   0.00000   0.00016   0.00016  -3.14153
   D28       -0.00007  -0.00000   0.00000   0.00002   0.00002  -0.00005
   D29       -0.00041   0.00003   0.00000   0.00061   0.00060   0.00019
   D30        3.14139   0.00001   0.00000   0.00011   0.00010   3.14149
   D31        3.14132   0.00002   0.00000   0.00047   0.00046  -3.14140
   D32       -0.00006   0.00000   0.00000  -0.00003  -0.00003  -0.00010
   D33       -0.00077   0.00003   0.00000   0.00092   0.00091   0.00014
   D34        3.14133   0.00001   0.00000   0.00029   0.00028  -3.14158
   D35       -3.14089   0.00000   0.00000   0.00008   0.00008  -3.14081
   D36        0.00121  -0.00002   0.00000  -0.00055  -0.00055   0.00066
   D37        0.00072  -0.00003   0.00000  -0.00092  -0.00093  -0.00021
   D38       -3.14144  -0.00001   0.00000  -0.00022  -0.00022   3.14153
   D39       -3.14107  -0.00001   0.00000  -0.00043  -0.00044  -3.14151
   D40       -0.00005   0.00001   0.00000   0.00027   0.00027   0.00022
         Item               Value     Threshold  Converged?
 Maximum Force            0.050212     0.000450     NO 
 RMS     Force            0.008424     0.000300     NO 
 Maximum Displacement     0.096378     0.001800     NO 
 RMS     Displacement     0.025245     0.001200     NO 
 Predicted change in Energy=-6.429371D-03
 GradGradGradGradGradGradGradGradGradGradGradGradGradGradGradGradGradGrad

                          Input orientation:                          
 ---------------------------------------------------------------------
 Center     Atomic      Atomic             Coordinates (Angstroms)
 Number     Number       Type             X           Y           Z
 ---------------------------------------------------------------------
      1          6           0       -2.163095    0.695427   -0.000012
      2          6           0       -2.115465   -0.691929    0.000003
      3          6           0       -0.902282   -1.395276    0.000009
      4          6           0        0.250702   -0.655854    0.000070
      5          6           0        0.227927    0.749569    0.000040
      6          6           0       -0.990938    1.432871   -0.000045
      7          7           0        1.574868   -1.067694    0.000006
      8          6           0        1.585360    1.150236    0.000103
      9          6           0        2.368321   -0.005959   -0.000082
     10          1           0        1.913014   -2.043042    0.000576
     11          1           0        1.963420    2.161345    0.000012
     12          1           0        3.439846   -0.133426   -0.000158
     13          1           0       -3.043546   -1.247099    0.000016
     14          1           0       -0.870974   -2.474485    0.000041
     15          1           0       -3.120566    1.198135   -0.000009
     16          1           0       -1.019690    2.514626   -0.000033
 ---------------------------------------------------------------------
                    Distance matrix (angstroms):
                    1          2          3          4          5
     1  C    0.000000
     2  C    1.388173   0.000000
     3  C    2.441453   1.402324   0.000000
     4  C    2.766293   2.366442   1.369714   0.000000
     5  C    2.391635   2.751255   2.424404   1.405608   0.000000
     6  C    1.384837   2.404025   2.829537   2.429907   1.397331
     7  N    4.132911   3.709414   2.498715   1.386732   2.262011
     8  C    3.775946   4.133966   3.559213   2.245723   1.415330
     9  C    4.585376   4.535956   3.553455   2.215101   2.269826
    10  H    4.910588   4.249018   2.888856   2.165080   3.261625
    11  H    4.379159   4.977798   4.567472   3.296970   2.237196
    12  H    5.663916   5.583315   4.521763   3.231651   3.331082
    13  H    2.132745   1.081456   2.146385   3.346886   3.832652
    14  H    3.423145   2.173997   1.079663   2.136721   3.406187
    15  H    1.081419   2.140693   3.412707   3.847431   3.378404
    16  H    2.148688   3.388616   3.911665   3.415530   2.161475
                    6          7          8          9         10
     6  C    0.000000
     7  N    3.582762   0.000000
     8  C    2.591756   2.217954   0.000000
     9  C    3.654430   1.325462   1.396357   0.000000
    10  H    4.529340   1.032302   3.210044   2.087346   0.000000
    11  H    3.042845   3.252332   1.079477   2.204802   4.204690
    12  H    4.699483   2.085905   2.255417   1.079080   2.444965
    13  H    3.375713   4.621897   5.212867   5.552363   5.020061
    14  H    3.909198   2.821561   4.378605   4.072672   2.817221
    15  H    2.142525   5.213547   4.706170   5.619406   5.986832
    16  H    1.082137   4.423205   2.940722   4.222791   5.419695
                   11         12         13         14         15
    11  H    0.000000
    12  H    2.728701   0.000000
    13  H    6.056996   6.578347   0.000000
    14  H    5.433665   4.905480   2.495305   0.000000
    15  H    5.174426   6.694181   2.446446   4.306831   0.000000
    16  H    3.003955   5.186487   4.271600   4.991327   2.479280
                   16
    16  H    0.000000
 Stoichiometry    C8H7N
 Framework group  C1[X(C8H7N)]
 Deg. of freedom    42
 Full point group                 C1      NOp   1
 Largest Abelian subgroup         C1      NOp   1
 Largest concise Abelian subgroup C1      NOp   1
                         Standard orientation:                         
 ---------------------------------------------------------------------
 Center     Atomic      Atomic             Coordinates (Angstroms)
 Number     Number       Type             X           Y           Z
 ---------------------------------------------------------------------
      1          6           0       -2.178215    0.635197   -0.000028
      2          6           0       -2.093914   -0.750414   -0.000013
      3          6           0       -0.862555   -1.421434   -0.000008
      4          6           0        0.270472   -0.651780    0.000054
      5          6           0        0.210539    0.752550    0.000024
      6          6           0       -1.025970    1.403381   -0.000062
      7          7           0        1.605066   -1.028458   -0.000010
      8          6           0        1.556902    1.188973    0.000087
      9          6           0        2.370164    0.053888   -0.000098
     10          1           0        1.968887   -1.994524    0.000560
     11          1           0        1.908091    2.209727   -0.000004
     12          1           0        3.444686   -0.045199   -0.000174
     13          1           0       -3.006989   -1.329933    0.000000
     14          1           0       -0.802719   -2.499437    0.000025
     15          1           0       -3.148645    1.112408   -0.000025
     16          1           0       -1.083318    2.483997   -0.000049
 ---------------------------------------------------------------------
 Rotational constants (GHZ):           3.9588149           1.6539444           1.1665670
 Standard basis: 6-311+G(2d,p) (5D, 7F)
 There are   303 symmetry adapted cartesian basis functions of A   symmetry.
 There are   285 symmetry adapted basis functions of A   symmetry.
   285 basis functions,   434 primitive gaussians,   303 cartesian basis functions
    31 alpha electrons       31 beta electrons
       nuclear repulsion energy       403.0193544702 Hartrees.
 NAtoms=   16 NActive=   16 NUniq=   16 SFac= 1.00D+00 NAtFMM=   60 NAOKFM=F Big=F
 Integral buffers will be    131072 words long.
 Raffenetti 1 integral format.
 Two-electron integral symmetry is turned on.
 One-electron integrals computed using PRISM.
 NBasis=   285 RedAO= T EigKep=  2.45D-06  NBF=   285
 NBsUse=   284 1.00D-06 EigRej=  7.60D-07 NBFU=   284
 Initial guess from the checkpoint file:  "/scratch/cwaldt/job_3402215/Gau-63262.chk"
 B after Tr=     0.000000    0.000000    0.000000
         Rot=    0.999916    0.000009    0.000009   -0.012981 Ang=   1.49 deg.
 ExpMin= 4.38D-02 ExpMax= 6.29D+03 ExpMxC= 9.49D+02 IAcc=3 IRadAn=         5 AccDes= 0.00D+00
 Harris functional with IExCor=20419 and IRadAn=       5 diagonalized for initial guess.
 HarFok:  IExCor=20419 AccDes= 0.00D+00 IRadAn=         5 IDoV= 1 UseB2=F ITyADJ=14
 ICtDFT=  3500011 ScaDFX=  1.000000  1.000000  1.000000  1.000000
 FoFCou: FMM=F IPFlag=           0 FMFlag=      100000 FMFlg1=           0
         NFxFlg=           0 DoJE=T BraDBF=F KetDBF=T FulRan=T
         wScrn=  0.000000 ICntrl=       500 IOpCl=  0 I1Cent=   200000004 NGrid=           0
         NMat0=    1 NMatS0=      1 NMatT0=    0 NMatD0=    1 NMtDS0=    0 NMtDT0=    0
 Petite list used in FoFCou.
 Requested convergence on RMS density matrix=1.00D-08 within 128 cycles.
 Requested convergence on MAX density matrix=1.00D-06.
 Requested convergence on             energy=1.00D-06.
 No special actions if energy rises.
 SCF Done:  E(RCAM-B3LYP) =  -363.711701887     A.U. after   13 cycles
            NFock= 13  Conv=0.55D-08     -V/T= 2.0033
 DoSCS=F DFT=T ScalE2(SS,OS)=  1.000000  1.000000
 ExpMin= 4.38D-02 ExpMax= 6.29D+03 ExpMxC= 9.49D+02 IAcc=3 IRadAn=         5 AccDes= 0.00D+00
 HarFok:  IExCor=  205 AccDes= 0.00D+00 IRadAn=         5 IDoV=-2 UseB2=F ITyADJ=14
 ICtDFT= 12500011 ScaDFX=  1.000000  1.000000  1.000000  1.000000
 Range of M.O.s used for correlation:    10   284
 NBasis=   285 NAE=    31 NBE=    31 NFC=     9 NFV=     0
 NROrb=    275 NOA=    22 NOB=    22 NVA=   253 NVB=   253

 **** Warning!!: The largest alpha MO coefficient is  0.21568552D+03

 Orbital symmetries:
       Occupied  (A) (A) (A) (A) (A) (A) (A) (A) (A) (A) (A) (A)
                 (A) (A) (A) (A) (A) (A) (A) (A) (A) (A) (A) (A)
                 (A) (A) (A) (A) (A) (A) (A)
       Virtual   (A) (A) (A) (A) (A) (A) (A) (A) (A) (A) (A) (A)
                 (A) (A) (A) (A) (A) (A) (A) (A) (A) (A) (A) (A)
                 (A) (A) (A) (A) (A) (A) (A) (A) (A) (A) (A) (A)
                 (A) (A) (A) (A) (A) (A) (A) (A) (A) (A) (A) (A)
                 (A) (A) (A) (A) (A) (A) (A) (A) (A) (A) (A) (A)
                 (A) (A) (A) (A) (A) (A) (A) (A) (A) (A) (A) (A)
                 (A) (A) (A) (A) (A) (A) (A) (A) (A) (A) (A) (A)
                 (A) (A) (A) (A) (A) (A) (A) (A) (A) (A) (A) (A)
                 (A) (A) (A) (A) (A) (A) (A) (A) (A) (A) (A) (A)
                 (A) (A) (A) (A) (A) (A) (A) (A) (A) (A) (A) (A)
                 (A) (A) (A) (A) (A) (A) (A) (A) (A) (A) (A) (A)
                 (A) (A) (A) (A) (A) (A) (A) (A) (A) (A) (A) (A)
                 (A) (A) (A) (A) (A) (A) (A) (A) (A) (A) (A) (A)
                 (A) (A) (A) (A) (A) (A) (A) (A) (A) (A) (A) (A)
                 (A) (A) (A) (A) (A) (A) (A) (A) (A) (A) (A) (A)
                 (A) (A) (A) (A) (A) (A) (A) (A) (A) (A) (A) (A)
                 (A) (A) (A) (A) (A) (A) (A) (A) (A) (A) (A) (A)
                 (A) (A) (A) (A) (A) (A) (A) (A) (A) (A) (A) (A)
                 (A) (A) (A) (A) (A) (A) (A) (A) (A) (A) (A) (A)
                 (A) (A) (A) (A) (A) (A) (A) (A) (A) (A) (A) (A)
                 (A) (A) (A) (A) (A) (A) (A) (A) (A) (A) (A) (A)
                 (A)
 Generating guess from densities on rwf.
 Convergence on wavefunction:    0.000001000000000
 Iteration     1 Dimension     6 NMult     0 NNew      6
 CISAX will form     6 AO SS matrices at one time.
 New state      1 was old state      2
 New state      2 was old state      1
 Iteration     2 Dimension    12 NMult     6 NNew      6
 New state      2 was old state      3
 New state      3 was old state      2
 Iteration     3 Dimension    18 NMult    12 NNew      6
 Iteration     4 Dimension    24 NMult    18 NNew      6
 Iteration     5 Dimension    30 NMult    24 NNew      6
 Iteration     6 Dimension    36 NMult    30 NNew      6
 Iteration     7 Dimension    42 NMult    36 NNew      6
 Iteration     8 Dimension    48 NMult    42 NNew      6
 Iteration     9 Dimension    54 NMult    48 NNew      6
 Iteration    10 Dimension    60 NMult    54 NNew      6
 Iteration    11 Dimension    64 NMult    60 NNew      4
 Iteration    12 Dimension    68 NMult    64 NNew      4
 Iteration    13 Dimension    70 NMult    68 NNew      2
 ***********************************************************************
 Excited states from <AA,BB:AA,BB> singles matrix:
 ***********************************************************************
 
 Ground to excited state transition densities written to RWF  633
 Ground to excited state transition electric dipole moments (Au):
       state          X           Y           Z        Dip. S.      Osc.
         1        -0.9171      0.6124      0.0000      1.2161      0.1415
         2         0.0822      0.2033     -0.0000      0.0481      0.0060
         3         0.0002     -0.0002     -0.1500      0.0225      0.0027
 Ground to excited state transition velocity dipole moments (Au):
       state          X           Y           Z        Dip. S.      Osc.
         1         0.1597     -0.1121     -0.0000      0.0381      0.1454
         2        -0.0156     -0.0394      0.0000      0.0018      0.0064
         3        -0.0000      0.0000      0.0249      0.0006      0.0023
 Ground to excited state transition magnetic dipole moments (Au):
       state          X           Y           Z
         1         0.0000      0.0001      0.1734
         2         0.0001      0.0000     -0.0855
         3         0.1578     -0.1196      0.0001
 Ground to excited state transition velocity quadrupole moments (Au):
       state          XX          YY          ZZ          XY          XZ          YZ
         1         0.2643     -0.1603      0.0226      0.0611     -0.0000      0.0000
         2         0.0243      0.0428     -0.0195     -0.0267      0.0000      0.0000
         3        -0.0000      0.0000      0.0000      0.0001      0.1000      0.0707
 <0|del|b> * <b|rxdel|0> + <0|del|b> * <b|delr+rdel|0>
 Rotatory Strengths (R) in cgs (10**-40 erg-esu-cm/Gauss)
       state          XX          YY          ZZ    R(velocity)    E-M Angle
         1        -0.0391      0.0053     -0.0146     -0.0161       90.00
         2        -0.0035     -0.0039     -0.0047     -0.0040       90.00
         3        -0.0034     -0.0094     -0.0057     -0.0062       90.00
 1/2[<0|r|b>*<b|rxdel|0> + (<0|rxdel|b>*<b|r|0>)*]
 Rotatory Strengths (R) in cgs (10**-40 erg-esu-cm/Gauss)
       state          XX          YY          ZZ     R(length)
         1         0.0073     -0.0493     -0.0039     -0.0153
         2        -0.0054     -0.0042     -0.0023     -0.0040
         3        -0.0179     -0.0150      0.0153     -0.0059
  1/2[<0|del|b>*<b|r|0> + (<0|r|b>*<b|del|0>)*] (Au)
       state          X           Y           Z        Dip. S.   Osc.(frdel)
         1        -0.1465     -0.0686     -0.0000      0.2151      0.1434
         2        -0.0013     -0.0080     -0.0000      0.0093      0.0062
         3        -0.0000     -0.0000     -0.0037      0.0037      0.0025

 Excitation energies and oscillator strengths:
 
 Excited State   1:      Singlet-A      4.7499 eV  261.02 nm  f=0.1415  <S**2>=0.000
      30 -> 37         0.14140
      31 -> 33         0.68144
 
 Excited State   2:      Singlet-A      5.0756 eV  244.28 nm  f=0.0060  <S**2>=0.000
      30 -> 33        -0.53454
      31 -> 37         0.43191
 
 Excited State   3:      Singlet-A      4.9474 eV  250.61 nm  f=0.0027  <S**2>=0.000
      31 -> 32         0.68975
 This state for optimization and/or second-order correction.
 Total Energy, E(TD-HF/TD-DFT) =  -363.529889973    
 Copying the excited state density for this state as the 1-particle RhoCI density.
 SavETr:  write IOETrn=   770 NScale= 10 NData=  16 NLR=1 NState=    3 LETran=      64.
          IDoAtm=1111111111111111
          Differentiating once with respect to electric field.
                with respect to dipole field.
          Differentiating once with respect to nuclear coordinates.
          There are     1 degrees of freedom in the 1st order CPHF.  IDoFFX=0 NUNeed=     1.
 LinEq1:  Iter=  0 NonCon=     1 RMS=8.12D-03 Max=1.56D-01 NDo=     1
 AX will form     1 AO Fock derivatives at one time.
 LinEq1:  Iter=  1 NonCon=     1 RMS=3.12D-03 Max=8.48D-02 NDo=     1
 LinEq1:  Iter=  2 NonCon=     1 RMS=1.93D-03 Max=8.37D-02 NDo=     1
 LinEq1:  Iter=  3 NonCon=     1 RMS=7.93D-04 Max=2.40D-02 NDo=     1
 LinEq1:  Iter=  4 NonCon=     1 RMS=4.10D-04 Max=1.01D-02 NDo=     1
 LinEq1:  Iter=  5 NonCon=     1 RMS=1.76D-04 Max=4.07D-03 NDo=     1
 LinEq1:  Iter=  6 NonCon=     1 RMS=9.49D-05 Max=2.97D-03 NDo=     1
 LinEq1:  Iter=  7 NonCon=     1 RMS=3.79D-05 Max=8.37D-04 NDo=     1
 LinEq1:  Iter=  8 NonCon=     1 RMS=1.12D-05 Max=3.93D-04 NDo=     1
 LinEq1:  Iter=  9 NonCon=     1 RMS=6.51D-06 Max=1.89D-04 NDo=     1
 LinEq1:  Iter= 10 NonCon=     1 RMS=2.68D-06 Max=6.33D-05 NDo=     1
 LinEq1:  Iter= 11 NonCon=     1 RMS=1.15D-06 Max=2.94D-05 NDo=     1
 LinEq1:  Iter= 12 NonCon=     1 RMS=5.65D-07 Max=1.72D-05 NDo=     1
 LinEq1:  Iter= 13 NonCon=     1 RMS=1.94D-07 Max=6.37D-06 NDo=     1
 LinEq1:  Iter= 14 NonCon=     1 RMS=1.05D-07 Max=1.97D-06 NDo=     1
 LinEq1:  Iter= 15 NonCon=     1 RMS=2.77D-08 Max=3.90D-07 NDo=     1
 LinEq1:  Iter= 16 NonCon=     1 RMS=1.05D-08 Max=3.12D-07 NDo=     1
 LinEq1:  Iter= 17 NonCon=     1 RMS=4.83D-09 Max=1.01D-07 NDo=     1
 LinEq1:  Iter= 18 NonCon=     1 RMS=1.09D-09 Max=3.05D-08 NDo=     1
 LinEq1:  Iter= 19 NonCon=     1 RMS=3.11D-10 Max=8.48D-09 NDo=     1
 LinEq1:  Iter= 20 NonCon=     1 RMS=1.82D-10 Max=5.23D-09 NDo=     1
 LinEq1:  Iter= 21 NonCon=     1 RMS=6.21D-11 Max=1.01D-09 NDo=     1
 LinEq1:  Iter= 22 NonCon=     0 RMS=1.32D-11 Max=2.58D-10 NDo=     1
 Linear equations converged to 1.000D-10 1.000D-09 after    22 iterations.
 End of Minotr F.D. properties file   721 does not exist.
 End of Minotr F.D. properties file   722 does not exist.
 End of Minotr F.D. properties file   788 does not exist.
 Calling FoFJK, ICntrl=  10005127 FMM=F ISym2X=0 I1Cent= 0 IOpClX= 0 NMat=1 NMatS=1 NMatT=0.
 ***** Axes restored to original set *****
 -------------------------------------------------------------------
 Center     Atomic                   Forces (Hartrees/Bohr)
 Number     Number              X              Y              Z
 -------------------------------------------------------------------
      1        6           0.001988692    0.000757089   -0.000006778
      2        6          -0.000630686    0.000405889    0.000001760
      3        6           0.004448424   -0.001631752    0.000006663
      4        6          -0.013430645   -0.005996060   -0.000005904
      5        6           0.010823361    0.001742879    0.000005531
      6        6          -0.002264100    0.002275357    0.000014319
      7        7           0.009399389    0.020251801    0.000009041
      8        6          -0.012039345    0.015598229   -0.000035455
      9        6          -0.004650524   -0.024049196    0.000018384
     10        1           0.003823857   -0.008898581   -0.000013426
     11        1           0.000961165   -0.000142979    0.000004743
     12        1           0.001794637    0.000686270    0.000005316
     13        1           0.000191261   -0.000954010    0.000000005
     14        1          -0.001028258    0.000000892   -0.000001452
     15        1           0.000253679    0.000143688   -0.000001239
     16        1           0.000359092   -0.000189515   -0.000001508
 -------------------------------------------------------------------
 Cartesian Forces:  Max     0.024049196 RMS     0.006393009

 GradGradGradGradGradGradGradGradGradGradGradGradGradGradGradGradGradGrad
 Berny optimization.
 Using GEDIIS/GDIIS optimizer.
 FormGI is forming the generalized inverse of G from B-inverse, IUseBI=4.
 Internal  Forces:  Max     0.013151394 RMS     0.002730793
 Search for a local minimum.
 Step number   2 out of a maximum of   94
 All quantities printed in internal units (Hartrees-Bohrs-Radians)
 Mixed Optimization -- RFO/linear search
 Update second derivatives using D2CorX and points    1    2
 DE= -7.73D-03 DEPred=-6.43D-03 R= 1.20D+00
 TightC=F SS=  1.41D+00  RLast= 1.66D-01 DXNew= 5.0454D-01 4.9657D-01
 Trust test= 1.20D+00 RLast= 1.66D-01 DXMaxT set to 4.97D-01
 ITU=  1  0
 Use linear search instead of GDIIS.
     Eigenvalues ---    0.01854   0.01932   0.01987   0.02011   0.02069
     Eigenvalues ---    0.02113   0.02148   0.02157   0.02172   0.02209
     Eigenvalues ---    0.02233   0.02248   0.02342   0.15835   0.16000
     Eigenvalues ---    0.16000   0.16000   0.16000   0.16000   0.16179
     Eigenvalues ---    0.21852   0.22191   0.22412   0.24470   0.24960
     Eigenvalues ---    0.33539   0.35718   0.35723   0.35784   0.35795
     Eigenvalues ---    0.36433   0.36553   0.37499   0.39563   0.42640
     Eigenvalues ---    0.44355   0.46240   0.46781   0.47551   0.47951
     Eigenvalues ---    0.48548   0.52014
 RFO step:  Lambda=-1.47361101D-03 EMin= 1.85438223D-02
 Quartic linear search produced a step of  0.23094.
 Iteration  1 RMS(Cart)=  0.00856571 RMS(Int)=  0.00004969
 Iteration  2 RMS(Cart)=  0.00005523 RMS(Int)=  0.00002103
 Iteration  3 RMS(Cart)=  0.00000000 RMS(Int)=  0.00002103
 Variable       Old X    -DE/DX   Delta X   Delta X   Delta X     New X
                                 (Linear)    (Quad)   (Total)
    R1        2.62327   0.00199  -0.00744   0.00960   0.00215   2.62541
    R2        2.61696  -0.00073   0.00094  -0.00247  -0.00154   2.61542
    R3        2.04358  -0.00016  -0.00015  -0.00045  -0.00059   2.04299
    R4        2.65001   0.00053   0.00795  -0.00375   0.00419   2.65419
    R5        2.04366   0.00033  -0.00011   0.00118   0.00108   2.04473
    R6        2.58838  -0.00299  -0.01047  -0.00145  -0.01191   2.57647
    R7        2.04027  -0.00003  -0.00117   0.00065  -0.00052   2.03975
    R8        2.65621   0.00520  -0.00563   0.01958   0.01403   2.67024
    R9        2.62054   0.00543   0.00445   0.00994   0.01440   2.63494
   R10        2.64057   0.00077  -0.00165   0.00342   0.00179   2.64236
   R11        2.67459  -0.00568  -0.00781  -0.01087  -0.01865   2.65594
   R12        2.04494  -0.00020  -0.00007  -0.00063  -0.00071   2.04423
   R13        2.50476  -0.01272  -0.02332  -0.01884  -0.04221   2.46255
   R14        1.95077   0.00966   0.01278   0.01741   0.03019   1.98096
   R15        2.63873   0.01315   0.01387   0.02285   0.03667   2.67541
   R16        2.03992   0.00020   0.00132  -0.00017   0.00116   2.04107
   R17        2.03917   0.00170   0.00112   0.00500   0.00613   2.04529
    A1        2.09805   0.00145  -0.00373   0.01037   0.00663   2.10467
    A2        2.08859  -0.00047   0.00202  -0.00340  -0.00138   2.08721
    A3        2.09655  -0.00098   0.00171  -0.00697  -0.00525   2.09130
    A4        2.13051   0.00060   0.00353  -0.00033   0.00318   2.13370
    A5        2.07557   0.00064  -0.00187   0.00739   0.00553   2.08110
    A6        2.07710  -0.00124  -0.00166  -0.00706  -0.00871   2.06839
    A7        2.04595  -0.00194  -0.00127  -0.00985  -0.01112   2.03483
    A8        2.12520  -0.00008   0.00289  -0.00499  -0.00210   2.12310
    A9        2.11204   0.00202  -0.00163   0.01485   0.01322   2.12526
   A10        2.12484   0.00249  -0.00209   0.01495   0.01286   2.13769
   A11        2.26982   0.00098  -0.00211   0.00570   0.00354   2.27335
   A12        1.88853  -0.00347   0.00420  -0.02065  -0.01640   1.87214
   A13        2.09795  -0.00136   0.00582  -0.01095  -0.00512   2.09283
   A14        1.84161   0.00301  -0.00544   0.02148   0.01610   1.85770
   A15        2.34363  -0.00165  -0.00038  -0.01053  -0.01098   2.33265
   A16        2.06908  -0.00124  -0.00226  -0.00419  -0.00643   2.06265
   A17        2.10579   0.00098   0.00063   0.00528   0.00590   2.11169
   A18        2.10832   0.00026   0.00163  -0.00109   0.00053   2.10885
   A19        1.91104   0.00207   0.00084   0.00724   0.00804   1.91909
   A20        2.20606  -0.00035   0.00366  -0.00190   0.00177   2.20782
   A21        2.16608  -0.00171  -0.00449  -0.00533  -0.00981   2.15627
   A22        1.87903  -0.00398   0.00216  -0.02076  -0.01861   1.86042
   A23        2.21562   0.00296  -0.00036   0.01716   0.01680   2.23243
   A24        2.18853   0.00102  -0.00180   0.00361   0.00181   2.19034
   A25        1.90456   0.00238  -0.00175   0.01270   0.01087   1.91543
   A26        2.09418  -0.00028  -0.00192   0.00298   0.00109   2.09527
   A27        2.28445  -0.00210   0.00367  -0.01567  -0.01196   2.27249
    D1        0.00002  -0.00000   0.00001  -0.00009  -0.00008  -0.00006
    D2       -3.14158  -0.00000  -0.00000  -0.00003  -0.00004   3.14157
    D3       -3.14159  -0.00000   0.00002  -0.00009  -0.00007   3.14153
    D4        0.00000  -0.00000   0.00001  -0.00004  -0.00003  -0.00003
    D5       -0.00008   0.00000  -0.00001   0.00022   0.00020   0.00012
    D6       -3.14157  -0.00000   0.00002  -0.00012  -0.00010   3.14152
    D7        3.14152   0.00000  -0.00002   0.00022   0.00020  -3.14147
    D8        0.00004  -0.00000   0.00001  -0.00011  -0.00010  -0.00007
    D9        0.00006  -0.00000   0.00001  -0.00006  -0.00005   0.00001
   D10        3.14157   0.00000  -0.00002   0.00007   0.00005  -3.14157
   D11       -3.14153  -0.00000   0.00002  -0.00011  -0.00009   3.14156
   D12       -0.00002   0.00000  -0.00001   0.00002   0.00001  -0.00001
   D13       -0.00007   0.00000  -0.00001   0.00007   0.00005  -0.00002
   D14       -3.14151   0.00000  -0.00002   0.00002  -0.00000  -3.14151
   D15       -3.14158  -0.00000   0.00001  -0.00006  -0.00005   3.14155
   D16        0.00016  -0.00000   0.00001  -0.00010  -0.00010   0.00006
   D17        0.00001   0.00000   0.00001   0.00006   0.00007   0.00008
   D18       -3.14158   0.00000  -0.00001   0.00020   0.00019  -3.14139
   D19        3.14148   0.00000   0.00001   0.00010   0.00012  -3.14159
   D20       -0.00011   0.00000  -0.00001   0.00024   0.00023   0.00012
   D21        3.14144   0.00000  -0.00012   0.00059   0.00047  -3.14127
   D22       -0.00082   0.00001   0.00007   0.00015   0.00022  -0.00060
   D23       -0.00002   0.00000  -0.00012   0.00054   0.00042   0.00041
   D24        3.14091   0.00001   0.00007   0.00010   0.00017   3.14108
   D25        0.00007  -0.00000   0.00000  -0.00020  -0.00020  -0.00013
   D26        3.14155   0.00000  -0.00003   0.00013   0.00010  -3.14154
   D27       -3.14153  -0.00000   0.00004  -0.00039  -0.00035   3.14130
   D28       -0.00005  -0.00000   0.00000  -0.00006  -0.00005  -0.00010
   D29        0.00019  -0.00001   0.00014  -0.00089  -0.00075  -0.00056
   D30        3.14149   0.00000   0.00002   0.00000   0.00003   3.14152
   D31       -3.14140  -0.00001   0.00011  -0.00073  -0.00061   3.14117
   D32       -0.00010   0.00000  -0.00001   0.00017   0.00017   0.00007
   D33        0.00014  -0.00001   0.00021  -0.00112  -0.00092  -0.00078
   D34       -3.14158  -0.00000   0.00007  -0.00039  -0.00032   3.14129
   D35       -3.14081  -0.00001   0.00002  -0.00069  -0.00068  -3.14148
   D36        0.00066  -0.00001  -0.00013   0.00004  -0.00008   0.00058
   D37       -0.00021   0.00001  -0.00021   0.00126   0.00105   0.00084
   D38        3.14153   0.00000  -0.00005   0.00043   0.00037  -3.14129
   D39       -3.14151   0.00000  -0.00010   0.00038   0.00028  -3.14123
   D40        0.00022  -0.00001   0.00006  -0.00046  -0.00039  -0.00017
         Item               Value     Threshold  Converged?
 Maximum Force            0.013151     0.000450     NO 
 RMS     Force            0.002731     0.000300     NO 
 Maximum Displacement     0.035473     0.001800     NO 
 RMS     Displacement     0.008575     0.001200     NO 
 Predicted change in Energy=-1.096074D-03
 GradGradGradGradGradGradGradGradGradGradGradGradGradGradGradGradGradGrad

                          Input orientation:                          
 ---------------------------------------------------------------------
 Center     Atomic      Atomic             Coordinates (Angstroms)
 Number     Number       Type             X           Y           Z
 ---------------------------------------------------------------------
      1          6           0       -2.156978    0.696951    0.000075
      2          6           0       -2.112413   -0.691642    0.000056
      3          6           0       -0.901147   -1.402674    0.000008
      4          6           0        0.242315   -0.660125   -0.000013
      5          6           0        0.229534    0.752850   -0.000010
      6          6           0       -0.988761    1.439100    0.000117
      7          7           0        1.577527   -1.061909   -0.000144
      8          6           0        1.573893    1.162754   -0.000308
      9          6           0        2.356360   -0.017133    0.000281
     10          1           0        1.931786   -2.048511    0.000250
     11          1           0        1.960113    2.171429   -0.000453
     12          1           0        3.431394   -0.142526    0.000539
     13          1           0       -3.039147   -1.250162    0.000047
     14          1           0       -0.877961   -2.481812   -0.000031
     15          1           0       -3.113742    1.200333    0.000054
     16          1           0       -1.015870    2.520522    0.000068
 ---------------------------------------------------------------------
                    Distance matrix (angstroms):
                    1          2          3          4          5
     1  C    0.000000
     2  C    1.389309   0.000000
     3  C    2.446536   1.404539   0.000000
     4  C    2.756495   2.354939   1.363410   0.000000
     5  C    2.387167   2.751595   2.434075   1.413032   0.000000
     6  C    1.384021   2.408870   2.843124   2.433576   1.398279
     7  N    4.127967   3.708470   2.501988   1.394353   2.260626
     8  C    3.759837   4.126456   3.564723   2.257430   1.405462
     9  C    4.569479   4.519390   3.539926   2.209666   2.261915
[...]
 ! D34   D(4,7,9,12)           180.0036         -DE/DX =    0.0                 !
 ! D35   D(10,7,9,8)           180.0043         -DE/DX =    0.0                 !
 ! D36   D(10,7,9,12)           -0.0036         -DE/DX =    0.0                 !
 ! D37   D(5,8,9,7)             -0.0127         -DE/DX =    0.0                 !
 ! D38   D(5,8,9,12)          -180.0038         -DE/DX =    0.0                 !
 ! D39   D(11,8,9,7)          -180.004          -DE/DX =    0.0                 !
 ! D40   D(11,8,9,12)            0.005          -DE/DX =    0.0                 !
 --------------------------------------------------------------------------------
 GradGradGradGradGradGradGradGradGradGradGradGradGradGradGradGradGradGrad

                          Input orientation:                          
 ---------------------------------------------------------------------
 Center     Atomic      Atomic             Coordinates (Angstroms)
 Number     Number       Type             X           Y           Z
 ---------------------------------------------------------------------
      1          6           0       -2.156474    0.699768   -0.000047
      2          6           0       -2.112227   -0.692942    0.000024
      3          6           0       -0.904007   -1.403017    0.000087
      4          6           0        0.242269   -0.661303    0.000099
      5          6           0        0.232319    0.754680    0.000030
      6          6           0       -0.992257    1.440174   -0.000072
      7          7           0        1.579575   -1.064697    0.000143
      8          6           0        1.571633    1.165061    0.000087
      9          6           0        2.359712   -0.018774   -0.000018
     10          1           0        1.937528   -2.057269    0.000173
     11          1           0        1.961832    2.171150    0.000055
     12          1           0        3.435849   -0.136341   -0.000071
     13          1           0       -3.040076   -1.249393    0.000042
     14          1           0       -0.883632   -2.481986    0.000162
     15          1           0       -3.114815    1.200792   -0.000071
     16          1           0       -1.020327    2.521541   -0.000089
 ---------------------------------------------------------------------
                    Distance matrix (angstroms):
                    1          2          3          4          5
     1  C    0.000000
     2  C    1.393413   0.000000
     3  C    2.447525   1.401429   0.000000
     4  C    2.757985   2.354708   1.365315   0.000000
     5  C    2.389425   2.755451   2.438625   1.416018   0.000000
     6  C    1.379711   2.409257   2.844560   2.437265   1.403385
     7  N    4.131756   3.710472   2.506519   1.396824   2.263898
     8  C    3.757031   4.125894   3.567045   2.258941   1.400776
     9  C    4.572991   4.522471   3.545136   2.212784   2.263633
    10  H    4.935798   4.273394   2.915881   2.196047   3.288585
    11  H    4.373261   4.980059   4.581233   3.313561   2.235532
    12  H    5.654481   5.575926   4.520930   3.236439   3.325134
    13  H    2.140089   1.081915   2.141586   3.334611   3.837301
    14  H    3.426906   2.170282   1.079161   2.140686   3.423646
    15  H    1.081407   2.142758   3.415771   3.838933   3.376733
    16  H    2.147018   3.394871   3.926281   3.424126   2.165852
                    6          7          8          9         10
     6  C    0.000000
     7  N    3.590084   0.000000
     8  C    2.578608   2.229772   0.000000
     9  C    3.655712   1.304825   1.422159   0.000000
    10  H    4.562428   1.055144   3.243037   2.081754   0.000000
    11  H    3.043184   3.258347   1.079106   2.225775   4.228488
    12  H    4.700374   2.075475   2.273532   1.082539   2.436171
    13  H    3.380434   4.623342   5.205520   5.538243   5.042737
    14  H    3.923664   2.841848   4.396507   4.072676   2.852950
    15  H    2.136015   5.212460   4.686584   5.608725   6.011749
    16  H    1.081731   4.429513   2.925456   4.228222   5.451091
                   11         12         13         14         15
    11  H    0.000000
    12  H    2.738108   0.000000
    13  H    6.059636   6.570881   0.000000
    14  H    5.454204   4.915278   2.483855   0.000000
    15  H    5.168554   6.685740   2.451324   4.305930   0.000000
    16  H    3.002673   5.188625   4.277771   5.005393   2.476138
                   16
    16  H    0.000000
 Stoichiometry    C8H7N
 Framework group  C1[X(C8H7N)]
 Deg. of freedom    42
 Full point group                 C1      NOp   1
 Largest Abelian subgroup         C1      NOp   1
 Largest concise Abelian subgroup C1      NOp   1
                         Standard orientation:                         
 ---------------------------------------------------------------------
 Center     Atomic      Atomic             Coordinates (Angstroms)
 Number     Number       Type             X           Y           Z
 ---------------------------------------------------------------------
      1          6           0       -2.171835    0.634781   -0.000085
      2          6           0       -2.088016   -0.756109   -0.000014
      3          6           0       -0.860100   -1.431552    0.000049
      4          6           0        0.264628   -0.657554    0.000061
      5          6           0        0.214433    0.757574   -0.000008
      6          6           0       -1.029134    1.407981   -0.000110
      7          7           0        1.612861   -1.022771    0.000105
      8          6           0        1.541540    1.205859    0.000049
      9          6           0        2.362952    0.044904   -0.000056
     10          1           0        1.998884   -2.004767    0.000136
     11          1           0        1.902983    2.222634    0.000017
     12          1           0        3.441995   -0.042024   -0.000109
     13          1           0       -2.999673   -1.338710    0.000004
     14          1           0       -0.809063   -2.509506    0.000124
     15          1           0       -3.144030    1.108360   -0.000109
     16          1           0       -1.087931    2.488113   -0.000126
 ---------------------------------------------------------------------
 Rotational constants (GHZ):           3.9196388           1.6605750           1.1664166

 **********************************************************************

            Population analysis using the SCF Density.

 **********************************************************************

 Orbital symmetries:
       Occupied  (A) (A) (A) (A) (A) (A) (A) (A) (A) (A) (A) (A)
                 (A) (A) (A) (A) (A) (A) (A) (A) (A) (A) (A) (A)
                 (A) (A) (A) (A) (A) (A) (A)
       Virtual   (A) (A) (A) (A) (A) (A) (A) (A) (A) (A) (A) (A)
                 (A) (A) (A) (A) (A) (A) (A) (A) (A) (A) (A) (A)
                 (A) (A) (A) (A) (A) (A) (A) (A) (A) (A) (A) (A)
                 (A) (A) (A) (A) (A) (A) (A) (A) (A) (A) (A) (A)
                 (A) (A) (A) (A) (A) (A) (A) (A) (A) (A) (A) (A)
                 (A) (A) (A) (A) (A) (A) (A) (A) (A) (A) (A) (A)
                 (A) (A) (A) (A) (A) (A) (A) (A) (A) (A) (A) (A)
                 (A) (A) (A) (A) (A) (A) (A) (A) (A) (A) (A) (A)
                 (A) (A) (A) (A) (A) (A) (A) (A) (A) (A) (A) (A)
                 (A) (A) (A) (A) (A) (A) (A) (A) (A) (A) (A) (A)
                 (A) (A) (A) (A) (A) (A) (A) (A) (A) (A) (A) (A)
                 (A) (A) (A) (A) (A) (A) (A) (A) (A) (A) (A) (A)
                 (A) (A) (A) (A) (A) (A) (A) (A) (A) (A) (A) (A)
                 (A) (A) (A) (A) (A) (A) (A) (A) (A) (A) (A) (A)
                 (A) (A) (A) (A) (A) (A) (A) (A) (A) (A) (A) (A)
                 (A) (A) (A) (A) (A) (A) (A) (A) (A) (A) (A) (A)
                 (A) (A) (A) (A) (A) (A) (A) (A) (A) (A) (A) (A)
                 (A) (A) (A) (A) (A) (A) (A) (A) (A) (A) (A) (A)
                 (A) (A) (A) (A) (A) (A) (A) (A) (A) (A) (A) (A)
                 (A) (A) (A) (A) (A) (A) (A) (A) (A) (A) (A) (A)
                 (A) (A) (A) (A) (A) (A) (A) (A) (A) (A) (A) (A)
                 (A)
 The electronic state is 1-A.
 Alpha  occ. eigenvalues --  -14.43953 -10.27966 -10.27379 -10.24484 -10.23948
 Alpha  occ. eigenvalues --  -10.23765 -10.23672 -10.23382 -10.22786  -1.08111
 Alpha  occ. eigenvalues --   -0.93111  -0.86250  -0.82727  -0.78996  -0.70636
 Alpha  occ. eigenvalues --   -0.67109  -0.65900  -0.61707  -0.55332  -0.54478
 Alpha  occ. eigenvalues --   -0.51437  -0.50584  -0.50336  -0.47208  -0.45692
 Alpha  occ. eigenvalues --   -0.42099  -0.41078  -0.40339  -0.34132  -0.28866
 Alpha  occ. eigenvalues --   -0.24738
 Alpha virt. eigenvalues --    0.01773   0.02026   0.03942   0.04505   0.06053
 Alpha virt. eigenvalues --    0.06103   0.06168   0.07736   0.08173   0.08817
 Alpha virt. eigenvalues --    0.08888   0.09140   0.10940   0.11382   0.12796
 Alpha virt. eigenvalues --    0.13037   0.13715   0.14955   0.15668   0.16057
 Alpha virt. eigenvalues --    0.17460   0.18097   0.18758   0.19364   0.19678
 Alpha virt. eigenvalues --    0.20466   0.20652   0.21512   0.22014   0.22179
 Alpha virt. eigenvalues --    0.23105   0.23952   0.24200   0.24442   0.25155
 Alpha virt. eigenvalues --    0.25445   0.26439   0.26533   0.27244   0.27931
 Alpha virt. eigenvalues --    0.28842   0.29091   0.29456   0.30864   0.31423
 Alpha virt. eigenvalues --    0.32083   0.33706   0.35949   0.38390   0.38890
 Alpha virt. eigenvalues --    0.41649   0.44400   0.46935   0.49422   0.51110
 Alpha virt. eigenvalues --    0.53418   0.54614   0.56242   0.57591   0.58207
 Alpha virt. eigenvalues --    0.58671   0.58932   0.59646   0.60571   0.61392
 Alpha virt. eigenvalues --    0.61914   0.63113   0.63582   0.66034   0.66618
 Alpha virt. eigenvalues --    0.68423   0.69244   0.69489   0.70629   0.71642
 Alpha virt. eigenvalues --    0.71846   0.74126   0.75268   0.75557   0.77619
 Alpha virt. eigenvalues --    0.78053   0.79290   0.79420   0.80737   0.82452
 Alpha virt. eigenvalues --    0.83160   0.84740   0.85738   0.86400   0.86848
 Alpha virt. eigenvalues --    0.88243   0.88520   0.89602   0.90487   0.91552
 Alpha virt. eigenvalues --    0.92205   0.93203   0.94054   0.97038   0.97740
 Alpha virt. eigenvalues --    0.98807   1.01624   1.06340   1.09682   1.12966
 Alpha virt. eigenvalues --    1.16647   1.17833   1.19489   1.19948   1.21534
 Alpha virt. eigenvalues --    1.24622   1.25829   1.27317   1.32165   1.32877
 Alpha virt. eigenvalues --    1.34050   1.36427   1.37355   1.38440   1.39119
 Alpha virt. eigenvalues --    1.39679   1.39916   1.43362   1.46015   1.46630
 Alpha virt. eigenvalues --    1.49128   1.52953   1.55278   1.56090   1.58291
 Alpha virt. eigenvalues --    1.62844   1.64103   1.64286   1.65951   1.69491
 Alpha virt. eigenvalues --    1.71249   1.74087   1.75665   1.78818   1.82692
 Alpha virt. eigenvalues --    1.84425   1.88447   1.95056   1.95828   2.00465
 Alpha virt. eigenvalues --    2.01576   2.04934   2.05996   2.11756   2.19096
 Alpha virt. eigenvalues --    2.25372   2.28198   2.35737   2.37553   2.45519
 Alpha virt. eigenvalues --    2.48098   2.53870   2.58406   2.69550   2.72079
 Alpha virt. eigenvalues --    2.72327   2.74057   2.75566   2.79497   2.81264
 Alpha virt. eigenvalues --    2.82776   2.83997   2.86445   2.87364   2.87654
 Alpha virt. eigenvalues --    2.88975   2.92422   2.94588   2.96637   2.99853
 Alpha virt. eigenvalues --    3.06698   3.07327   3.13411   3.15771   3.16146
 Alpha virt. eigenvalues --    3.19944   3.20362   3.21784   3.24353   3.29481
 Alpha virt. eigenvalues --    3.31982   3.33059   3.37034   3.38110   3.38490
 Alpha virt. eigenvalues --    3.41341   3.41462   3.44679   3.44794   3.47958
 Alpha virt. eigenvalues --    3.49283   3.49420   3.52840   3.54953   3.57513
 Alpha virt. eigenvalues --    3.59012   3.61650   3.62726   3.64419   3.66849
 Alpha virt. eigenvalues --    3.68620   3.69606   3.70305   3.72192   3.74928
 Alpha virt. eigenvalues --    3.77217   3.78718   3.81514   3.81677   3.84503
 Alpha virt. eigenvalues --    3.86481   3.86807   3.87609   3.94747   3.97410
 Alpha virt. eigenvalues --    4.00456   4.02469   4.02507   4.04976   4.05492
 Alpha virt. eigenvalues --    4.09614   4.15837   4.17684   4.27068   4.31534
 Alpha virt. eigenvalues --    4.53193   4.60035   4.69833   4.75136   4.86090
 Alpha virt. eigenvalues --    4.99729   5.06316   5.10418   5.13385   5.36917
 Alpha virt. eigenvalues --    5.41450   5.47341   5.72125   5.77788  23.76774
 Alpha virt. eigenvalues --   24.02371  24.11262  24.11755  24.15895  24.22697
 Alpha virt. eigenvalues --   24.32874  24.34327  35.74815
          Condensed to atoms (all electrons):
               1          2          3          4          5          6
     1  C    5.132638   0.438473   0.025186  -0.337482   0.124176   0.384820
     2  C    0.438473   5.017237   0.555797   0.025040  -0.432110   0.122197
     3  C    0.025186   0.555797   5.312620   0.331707  -0.029083   0.061494
     4  C   -0.337482   0.025040   0.331707   6.044390  -0.129399   0.076055
     5  C    0.124176  -0.432110  -0.029083  -0.129399   5.981991  -0.560612
     6  C    0.384820   0.122197   0.061494   0.076055  -0.560612   6.131424
     7  N    0.007239  -0.016474  -0.163713   0.130593   0.091581  -0.013745
     8  C   -0.050594   0.044491  -0.099339   0.012203  -0.211550   0.306937
     9  C   -0.012247   0.002368   0.052439  -0.057145   0.105456  -0.184225
    10  H   -0.000340   0.000855   0.013703  -0.060067   0.016189   0.000703
    11  H    0.003098  -0.000016  -0.009127   0.006533  -0.044404  -0.015164
    12  H    0.001317  -0.000431  -0.000580   0.002166   0.021552  -0.001082
    13  H   -0.052596   0.412361  -0.056950   0.017198   0.014604   0.003642
    14  H    0.020209  -0.014174   0.420020  -0.077663  -0.003132  -0.002382
    15  H    0.421733  -0.052927   0.018479  -0.001631   0.035352  -0.078513
    16  H   -0.041113   0.019502  -0.006479   0.029926  -0.027217   0.372868
               7          8          9         10         11         12
     1  C    0.007239  -0.050594  -0.012247  -0.000340   0.003098   0.001317
     2  C   -0.016474   0.044491   0.002368   0.000855  -0.000016  -0.000431
     3  C   -0.163713  -0.099339   0.052439   0.013703  -0.009127  -0.000580
     4  C    0.130593   0.012203  -0.057145  -0.060067   0.006533   0.002166
     5  C    0.091581  -0.211550   0.105456   0.016189  -0.044404   0.021552
     6  C   -0.013745   0.306937  -0.184225   0.000703  -0.015164  -0.001082
     7  N    6.598409  -0.031706   0.310656   0.392369   0.007438  -0.039066
     8  C   -0.031706   5.661637   0.300945  -0.002806   0.454124  -0.031303
     9  C    0.310656   0.300945   5.161537  -0.034550  -0.048367   0.407184
    10  H    0.392369  -0.002806  -0.034550   0.415915  -0.000196  -0.006130
    11  H    0.007438   0.454124  -0.048367  -0.000196   0.554798  -0.001585
    12  H   -0.039066  -0.031303   0.407184  -0.006130  -0.001585   0.539659
    13  H   -0.000172   0.002947  -0.000596  -0.000003   0.000000  -0.000001
    14  H   -0.000837  -0.011056   0.009486   0.003153   0.000027   0.000004
    15  H    0.000524  -0.000490   0.000448  -0.000002  -0.000010  -0.000001
    16  H   -0.000891  -0.006283  -0.001289   0.000029   0.002623  -0.000005
              13         14         15         16
     1  C   -0.052596   0.020209   0.421733  -0.041113
     2  C    0.412361  -0.014174  -0.052927   0.019502
     3  C   -0.056950   0.420020   0.018479  -0.006479
     4  C    0.017198  -0.077663  -0.001631   0.029926
     5  C    0.014604  -0.003132   0.035352  -0.027217
     6  C    0.003642  -0.002382  -0.078513   0.372868
     7  N   -0.000172  -0.000837   0.000524  -0.000891
     8  C    0.002947  -0.011056  -0.000490  -0.006283
     9  C   -0.000596   0.009486   0.000448  -0.001289
    10  H   -0.000003   0.003153  -0.000002   0.000029
    11  H    0.000000   0.000027  -0.000010   0.002623
    12  H   -0.000001   0.000004  -0.000001  -0.000005
    13  H    0.588768  -0.005691  -0.005881  -0.000373
    14  H   -0.005691   0.575562  -0.000346   0.000095
    15  H   -0.005881  -0.000346   0.583702  -0.005868
    16  H   -0.000373   0.000095  -0.005868   0.573496
 Mulliken charges:
               1
     1  C   -0.064519
     2  C   -0.122190
     3  C   -0.426175
     4  C   -0.012423
     5  C    1.046604
     6  C   -0.604416
     7  N   -0.272207
     8  C   -0.338158
     9  C   -0.012101
    10  H    0.261178
    11  H    0.090228
    12  H    0.108301
    13  H    0.082743
    14  H    0.086725
    15  H    0.085429
    16  H    0.090979
 Sum of Mulliken charges =  -0.00000
 Mulliken charges with hydrogens summed into heavy atoms:
               1
     1  C    0.020910
     2  C   -0.039447
     3  C   -0.339450
     4  C   -0.012423
     5  C    1.046604
     6  C   -0.513436
     7  N   -0.011029
     8  C   -0.247929
     9  C    0.096200
 Electronic spatial extent (au):  <R**2>=            998.8323
 Charge=             -0.0000 electrons
 Dipole moment (field-independent basis, Debye):
    X=              1.6541    Y=             -1.8197    Z=              0.0000  Tot=              2.4591
 Quadrupole moment (field-independent basis, Debye-Ang):
   XX=            -45.3136   YY=            -44.8208   ZZ=            -58.7311
   XY=             -4.3105   XZ=             -0.0002   YZ=             -0.0006
 Traceless Quadrupole moment (field-independent basis, Debye-Ang):
   XX=              4.3082   YY=              4.8010   ZZ=             -9.1093
   XY=             -4.3105   XZ=             -0.0002   YZ=             -0.0006
 Octapole moment (field-independent basis, Debye-Ang**2):
  XXX=             16.3995  YYY=            -11.1088  ZZZ=              0.0005  XYY=              8.1934
  XXY=             -9.9717  XXZ=             -0.0009  XZZ=              1.9657  YZZ=             -2.2767
  YYZ=              0.0012  XYZ=             -0.0002
 Hexadecapole moment (field-independent basis, Debye-Ang**3):
 XXXX=           -805.9798 YYYY=           -371.2800 ZZZZ=            -72.0176 XXXY=            -30.2056
 XXXZ=             -0.0107 YYYX=            -23.1020 YYYZ=              0.0038 ZZZX=             -0.0084
 ZZZY=              0.0087 XXYY=           -194.8407 XXZZ=           -186.7023 YYZZ=            -93.5645
 XXYZ=              0.0004 YYXZ=             -0.0010 ZZXY=             -5.1006
 N-N= 4.026622867933D+02 E-N=-1.650530339250D+03  KE= 3.624603954205D+02
 Unable to Open any file for archive entry.
 1\1\GINC-EXP-1-53\FOpt\RCAM-B3LYP TD-FC\6-311+G(2d,p)\C8H7N1\CWALDT\14
 -Jun-2021\0\\# opt td=(root=3) cam-b3lyp/6-311+g(2d,p) geom=connectivi
 ty\\cc-pvtzOptTemplate\\0,1\C,-2.1564744897,0.6997682501,-0.000046606\
 C,-2.1122269188,-0.6929423905,0.0000241958\C,-0.9040065546,-1.40301667
 39,0.000087214\C,0.2422686339,-0.6613027567,0.0000991265\C,0.232319239
 6,0.7546804637,0.0000298805\C,-0.9922569657,1.4401742889,-0.0000718924
 \N,1.5795753667,-1.0646966723,0.0001431111\C,1.5716327692,1.1650609535
 ,0.000087259\C,2.3597124431,-0.018774238,-0.0000181075\H,1.9375277844,
 -2.0572685509,0.0001734281\H,1.9618324739,2.1711498502,0.0000551383\H,
 3.4358485463,-0.1363405067,-0.0000707976\H,-3.0400755098,-1.2493926238
 ,0.0000417507\H,-0.8836317348,-2.4819857585,0.0001617919\H,-3.11481534
 39,1.2007916972,-0.0000709458\H,-1.0203267397,2.5215406677,-0.00008854
 6\\Version=AS64L-G16RevC.01\State=1-A\HF=-363.7065606\RMSD=5.386e-09\R
 MSF=1.433e-04\Dipole=-2.3445213,2.476846,-0.0004155\PG=C01 [X(C8H7N1)]
 \\@
 The archive entry for this job was punched.


 SUCCESS IS COUNTED SWEETEST
 BY THOSE WHO NE'ER SUCCEED.
 TO COMPREHEND NECTAR
 REQUIRES SOREST NEED.
           EMILY DICKINSON
 Job cpu time:       0 days  6 hours  7 minutes 48.3 seconds.
 Elapsed time:       0 days  1 hours 32 minutes 32.3 seconds.
 File lengths (MBytes):  RWF=    309 Int=      0 D2E=      0 Chk=     16 Scr=      1
 Normal termination of Gaussian 16 at Mon Jun 14 09:52:05 2021.
