 Entering Link 1 = C:\G09W\l1.exe PID=      9348.
  
 Copyright (c) 1988,1990,1992,1993,1995,1998,2003,2009,2013,
            Gaussian, Inc.  All Rights Reserved.
  
 This is part of the Gaussian(R) 09 program.  It is based on
 the Gaussian(R) 03 system (copyright 2003, Gaussian, Inc.),
 the Gaussian(R) 98 system (copyright 1998, Gaussian, Inc.),
 the Gaussian(R) 94 system (copyright 1995, Gaussian, Inc.),
 the Gaussian 92(TM) system (copyright 1992, Gaussian, Inc.),
 the Gaussian 90(TM) system (copyright 1990, Gaussian, Inc.),
 the Gaussian 88(TM) system (copyright 1988, Gaussian, Inc.),
 the Gaussian 86(TM) system (copyright 1986, Carnegie Mellon
 University), and the Gaussian 82(TM) system (copyright 1983,
 Carnegie Mellon University). Gaussian is a federally registered
 trademark of Gaussian, Inc.
  
 This software contains proprietary and confidential information,
 including trade secrets, belonging to Gaussian, Inc.
  
 This software is provided under written license and may be
 used, copied, transmitted, or stored only in accord with that
 written license.
  
 The following legend is applicable only to US Government
 contracts under FAR:
  
                    RESTRICTED RIGHTS LEGEND
  
 Use, reproduction and disclosure by the US Government is
 subject to restrictions as set forth in subparagraphs (a)
 and (c) of the Commercial Computer Software - Restricted
 Rights clause in FAR 52.227-19.
  
 Gaussian, Inc.
 340 Quinnipiac St., Bldg. 40, Wallingford CT 06492
  
  
 ---------------------------------------------------------------
 Warning -- This program may not be used in any manner that
 competes with the business of Gaussian, Inc. or will provide
 assistance to any competitor of Gaussian, Inc.  The licensee
 of this program is prohibited from giving any competitor of
 Gaussian, Inc. access to this program.  By using this program,
 the user acknowledges that Gaussian, Inc. is engaged in the
 business of creating and licensing software in the field of
 computational chemistry and represents and warrants to the
 licensee that it is not a competitor of Gaussian, Inc. and that
 it will not use this program in any manner prohibited above.
 ---------------------------------------------------------------
  

 Cite this work as:
 Gaussian 09, Revision D.01,
 M. J. Frisch, G. W. Trucks, H. B. Schlegel, G. E. Scuseria, 
 M. A. Robb, J. R. Cheeseman, G. Scalmani, V. Barone, B. Mennucci, 
 G. A. Petersson, H. Nakatsuji, M. Caricato, X. Li, H. P. Hratchian, 
 A. F. Izmaylov, J. Bloino, G. Zheng, J. L. Sonnenberg, M. Hada, 
 M. Ehara, K. Toyota, R. Fukuda, J. Hasegawa, M. Ishida, T. Nakajima, 
 Y. Honda, O. Kitao, H. Nakai, T. Vreven, J. A. Montgomery, Jr., 
 J. E. Peralta, F. Ogliaro, M. Bearpark, J. J. Heyd, E. Brothers, 
 K. N. Kudin, V. N. Staroverov, T. Keith, R. Kobayashi, J. Normand, 
 K. Raghavachari, A. Rendell, J. C. Burant, S. S. Iyengar, J. Tomasi, 
 M. Cossi, N. Rega, J. M. Millam, M. Klene, J. E. Knox, J. B. Cross, 
 V. Bakken, C. Adamo, J. Jaramillo, R. Gomperts, R. E. Stratmann, 
 O. Yazyev, A. J. Austin, R. Cammi, C. Pomelli, J. W. Ochterski, 
 R. L. Martin, K. Morokuma, V. G. Zakrzewski, G. A. Voth, 
 P. Salvador, J. J. Dannenberg, S. Dapprich, A. D. Daniels, 
 O. Farkas, J. B. Foresman, J. V. Ortiz, J. Cioslowski, 
 and D. J. Fox, Gaussian, Inc., Wallingford CT, 2013.
 
 ******************************************
 Gaussian 09:  EM64W-G09RevD.01 13-Apr-2013
                07-Jun-2021 
 ******************************************
 %chk=C:\Users\cwaldt\Desktop\indole\solvation\Excited_state_standard.chk
 ------------------------------------------------
 # opt td b3lyp/3-21+g geom=connectivity pop=full
 ------------------------------------------------
 1/14=-1,18=20,19=15,26=3,38=1,57=2/1,3;
 2/9=110,12=2,17=6,18=5,40=1/2;
 3/5=5,7=10,11=9,16=1,25=1,30=1,71=1,74=-5/1,2,8,3;
 4//1;
 5/5=2,38=5/2;
 8/6=1,10=1/1;
 9/15=2,42=1,70=2/14;
 10/5=4/2;
 6/7=3/1;
 7/12=6,13=5/1,2,3,16;
 1/14=-1,18=20,19=15,26=3/3(2);
 2/9=110/2;
 99//99;
 2/9=110/2;
 3/5=5,7=10,11=9,16=1,25=1,30=1,71=1,74=-5/1,2,8,3;
 4/5=5,16=3,69=1/1;
 5/5=2,38=5/2;
 8/6=1,10=1/1;
 9/15=2,42=1,49=4,70=2/14;
 10/5=4/2;
 7/12=6,13=5/1,2,3,16;
 1/14=-1,18=20,19=15,26=3/3(-8);
 2/9=110/2;
 6/7=3/1;
 99//99;
 -------------------
 Title Card Required
 -------------------
 Symbolic Z-matrix:
 Charge =  0 Multiplicity = 1
 C                    -1.77978   0.56678  -0.0009 
 C                    -0.40814   0.592    -0.00451 
 C                     0.30031   1.78979   0.00383 
 C                    -0.44087   2.99142   0.01625 
 C                    -1.86149   2.96016   0.01995 
 C                    -2.5462    1.72682   0.01123 
 C                    -2.17514  -0.7639   -0.01126 
 C                    -0.99262  -1.52028  -0.02108 
 H                     1.37026   1.79975   0.00092 
 H                     0.0703    3.9314    0.02292 
 H                    -2.41435   3.87621   0.02938 
 H                    -3.61541   1.68559   0.01386 
 H                    -3.17787  -1.13729  -0.01168 
 H                    -0.9328   -2.58857  -0.03044 
 N                     0.05793  -0.66908  -0.01668 
 H                     1.02225  -0.93378  -0.02165 
 

 GradGradGradGradGradGradGradGradGradGradGradGradGradGradGradGradGradGrad
 Berny optimization.
 Initialization pass.
                           ----------------------------
                           !    Initial Parameters    !
                           ! (Angstroms and Degrees)  !
 --------------------------                            --------------------------
 ! Name  Definition              Value          Derivative Info.                !
 --------------------------------------------------------------------------------
 ! R1    R(1,2)                  1.3719         estimate D2E/DX2                !
 ! R2    R(1,6)                  1.3904         estimate D2E/DX2                !
 ! R3    R(1,7)                  1.3882         estimate D2E/DX2                !
 ! R4    R(2,3)                  1.3916         estimate D2E/DX2                !
 ! R5    R(2,15)                 1.3445         estimate D2E/DX2                !
 ! R6    R(3,4)                  1.4119         estimate D2E/DX2                !
 ! R7    R(3,9)                  1.07           estimate D2E/DX2                !
 ! R8    R(4,5)                  1.421          estimate D2E/DX2                !
 ! R9    R(4,10)                 1.07           estimate D2E/DX2                !
 ! R10   R(5,6)                  1.4107         estimate D2E/DX2                !
 ! R11   R(5,11)                 1.07           estimate D2E/DX2                !
 ! R12   R(6,12)                 1.07           estimate D2E/DX2                !
 ! R13   R(7,8)                  1.4038         estimate D2E/DX2                !
 ! R14   R(7,13)                 1.07           estimate D2E/DX2                !
 ! R15   R(8,14)                 1.07           estimate D2E/DX2                !
 ! R16   R(8,15)                 1.3521         estimate D2E/DX2                !
 ! R17   R(15,16)                1.0            estimate D2E/DX2                !
 ! A1    A(2,1,6)              122.399          estimate D2E/DX2                !
 ! A2    A(2,1,7)              107.5986         estimate D2E/DX2                !
 ! A3    A(6,1,7)              130.0024         estimate D2E/DX2                !
 ! A4    A(1,2,3)              121.6541         estimate D2E/DX2                !
 ! A5    A(1,2,15)             109.2304         estimate D2E/DX2                !
 ! A6    A(3,2,15)             129.1154         estimate D2E/DX2                !
 ! A7    A(2,3,4)              117.732          estimate D2E/DX2                !
 ! A8    A(2,3,9)              121.134          estimate D2E/DX2                !
 ! A9    A(4,3,9)              121.134          estimate D2E/DX2                !
 ! A10   A(3,4,5)              120.4065         estimate D2E/DX2                !
 ! A11   A(3,4,10)             119.7968         estimate D2E/DX2                !
 ! A12   A(5,4,10)             119.7968         estimate D2E/DX2                !
 ! A13   A(4,5,6)              120.2968         estimate D2E/DX2                !
 ! A14   A(4,5,11)             119.8516         estimate D2E/DX2                !
 ! A15   A(6,5,11)             119.8516         estimate D2E/DX2                !
 ! A16   A(1,6,5)              117.5116         estimate D2E/DX2                !
 ! A17   A(1,6,12)             121.2442         estimate D2E/DX2                !
 ! A18   A(5,6,12)             121.2442         estimate D2E/DX2                !
 ! A19   A(1,7,8)              106.0599         estimate D2E/DX2                !
 ! A20   A(1,7,13)             126.9701         estimate D2E/DX2                !
 ! A21   A(8,7,13)             126.9701         estimate D2E/DX2                !
 ! A22   A(7,8,14)             125.8112         estimate D2E/DX2                !
 ! A23   A(7,8,15)             108.3775         estimate D2E/DX2                !
 ! A24   A(14,8,15)            125.8112         estimate D2E/DX2                !
 ! A25   A(2,15,8)             108.7335         estimate D2E/DX2                !
 ! A26   A(2,15,16)            125.6332         estimate D2E/DX2                !
 ! A27   A(8,15,16)            125.6332         estimate D2E/DX2                !
 ! D1    D(6,1,2,3)              0.0001         estimate D2E/DX2                !
 ! D2    D(6,1,2,15)           179.9999         estimate D2E/DX2                !
 ! D3    D(7,1,2,3)           -179.9999         estimate D2E/DX2                !
 ! D4    D(7,1,2,15)             0.0            estimate D2E/DX2                !
 ! D5    D(2,1,6,5)             -0.0001         estimate D2E/DX2                !
 ! D6    D(2,1,6,12)           179.9999         estimate D2E/DX2                !
 ! D7    D(7,1,6,5)            179.9999         estimate D2E/DX2                !
 ! D8    D(7,1,6,12)            -0.0001         estimate D2E/DX2                !
 ! D9    D(2,1,7,8)              0.0            estimate D2E/DX2                !
 ! D10   D(2,1,7,13)          -179.9998         estimate D2E/DX2                !
 ! D11   D(6,1,7,8)           -179.9999         estimate D2E/DX2                !
 ! D12   D(6,1,7,13)             0.0002         estimate D2E/DX2                !
 ! D13   D(1,2,3,4)              0.0            estimate D2E/DX2                !
 ! D14   D(1,2,3,9)           -179.9999         estimate D2E/DX2                !
 ! D15   D(15,2,3,4)          -179.9998         estimate D2E/DX2                !
 ! D16   D(15,2,3,9)             0.0002         estimate D2E/DX2                !
 ! D17   D(1,2,15,8)             0.0            estimate D2E/DX2                !
 ! D18   D(1,2,15,16)          179.9999         estimate D2E/DX2                !
 ! D19   D(3,2,15,8)           179.9999         estimate D2E/DX2                !
 ! D20   D(3,2,15,16)           -0.0003         estimate D2E/DX2                !
 ! D21   D(2,3,4,5)             -0.0001         estimate D2E/DX2                !
 ! D22   D(2,3,4,10)           179.9999         estimate D2E/DX2                !
 ! D23   D(9,3,4,5)            179.9998         estimate D2E/DX2                !
 ! D24   D(9,3,4,10)            -0.0002         estimate D2E/DX2                !
 ! D25   D(3,4,5,6)              0.0001         estimate D2E/DX2                !
 ! D26   D(3,4,5,11)          -179.9998         estimate D2E/DX2                !
 ! D27   D(10,4,5,6)          -179.9999         estimate D2E/DX2                !
 ! D28   D(10,4,5,11)            0.0002         estimate D2E/DX2                !
 ! D29   D(4,5,6,1)              0.0            estimate D2E/DX2                !
 ! D30   D(4,5,6,12)           180.0            estimate D2E/DX2                !
 ! D31   D(11,5,6,1)           179.9999         estimate D2E/DX2                !
 ! D32   D(11,5,6,12)           -0.0001         estimate D2E/DX2                !
 ! D33   D(1,7,8,14)           179.9999         estimate D2E/DX2                !
 ! D34   D(1,7,8,15)             0.0            estimate D2E/DX2                !
 ! D35   D(13,7,8,14)           -0.0003         estimate D2E/DX2                !
 ! D36   D(13,7,8,15)          179.9998         estimate D2E/DX2                !
 ! D37   D(7,8,15,2)             0.0            estimate D2E/DX2                !
 ! D38   D(7,8,15,16)         -179.9999         estimate D2E/DX2                !
 ! D39   D(14,8,15,2)         -179.9999         estimate D2E/DX2                !
 ! D40   D(14,8,15,16)           0.0002         estimate D2E/DX2                !
 --------------------------------------------------------------------------------
 Trust Radius=3.00D-01 FncErr=1.00D-07 GrdErr=1.00D-06
 Number of steps in this run=     94 maximum allowed number of steps=    100.
 GradGradGradGradGradGradGradGradGradGradGradGradGradGradGradGradGradGrad

                          Input orientation:                          
 ---------------------------------------------------------------------
 Center     Atomic      Atomic             Coordinates (Angstroms)
 Number     Number       Type             X           Y           Z
 ---------------------------------------------------------------------
      1          6           0       -1.779782    0.566781   -0.000901
      2          6           0       -0.408137    0.592001   -0.004514
      3          6           0        0.300311    1.789795    0.003827
      4          6           0       -0.440874    2.991419    0.016250
      5          6           0       -1.861487    2.960156    0.019946
      6          6           0       -2.546205    1.726818    0.011233
      7          6           0       -2.175136   -0.763899   -0.011258
      8          6           0       -0.992621   -1.520285   -0.021076
      9          1           0        1.370260    1.799752    0.000923
     10          1           0        0.070298    3.931397    0.022923
     11          1           0       -2.414350    3.876209    0.029379
     12          1           0       -3.615407    1.685592    0.013863
     13          1           0       -3.177871   -1.137292   -0.011677
     14          1           0       -0.932804   -2.588570   -0.030444
     15          7           0        0.057932   -0.669082   -0.016678
     16          1           0        1.022251   -0.933777   -0.021653
 ---------------------------------------------------------------------
                    Distance matrix (angstroms):
                    1          2          3          4          5
     1  C    0.000000
     2  C    1.371881   0.000000
     3  C    2.413000   1.391646   0.000000
     4  C    2.769808   2.399732   1.411882   0.000000
     5  C    2.394860   2.778666   2.458327   1.420962   0.000000
     6  C    1.390409   2.420618   2.847222   2.455944   1.410687
     7  C    1.388209   2.227284   3.556602   4.136525   3.737370
     8  C    2.230667   2.191722   3.553719   4.545469   4.564095
     9  H    3.382748   2.149742   1.070000   2.168066   3.433815
    10  H    3.839792   3.373607   2.154004   1.070000   2.162200
    11  H    3.369852   3.848644   3.423910   2.162784   1.070000
    12  H    2.149762   3.388637   3.917117   3.432616   2.168130
    13  H    2.204231   3.265261   4.545968   4.953604   4.303829
    14  H    3.267184   3.223659   4.548827   5.601826   5.626131
    15  N    2.214678   1.344507   2.470879   3.694477   4.105713
    16  H    3.178600   2.091483   2.817746   4.189193   4.845657
                    6          7          8          9         10
     6  C    0.000000
     7  C    2.518307   0.000000
     8  C    3.599770   1.403766   0.000000
     9  H    3.917158   4.375190   4.075087   0.000000
    10  H    3.421461   5.204705   5.554509   2.496858   0.000000
    11  H    2.153508   4.646448   5.580860   4.316916   2.485270
    12  H    1.070000   2.841658   4.142207   4.986991   4.316034
    13  H    2.933028   1.070000   2.218579   5.414045   6.020250
    14  H    4.607318   2.207529   1.070000   4.956053   6.596896
    15  N    3.538735   2.235087   1.352119   2.796008   4.600667
    16  H    4.451261   3.201914   2.098500   2.755685   4.957633
                   11         12         13         14         15
    11  H    0.000000
    12  H    2.498315   0.000000
    13  H    5.071473   2.856705   0.000000
    14  H    6.632641   5.046463   2.673367   0.000000
    15  N    5.174357   4.363352   3.269506   2.160135   0.000000
    16  H    5.911751   5.326371   4.205062   2.561378   1.000000
                   16
    16  H    0.000000
 Stoichiometry    C8H7N
 Framework group  C1[X(C8H7N)]
 Deg. of freedom    42
 Full point group                 C1      NOp   1
 Largest Abelian subgroup         C1      NOp   1
 Largest concise Abelian subgroup C1      NOp   1
                         Standard orientation:                         
 ---------------------------------------------------------------------
 Center     Atomic      Atomic             Coordinates (Angstroms)
 Number     Number       Type             X           Y           Z
 ---------------------------------------------------------------------
      1          6           0        0.237186    0.716536    0.000001
      2          6           0        0.279268   -0.654700    0.000001
      3          6           0       -0.882385   -1.421016    0.000001
      4          6           0       -2.118961   -0.739628   -0.000002
      5          6           0       -2.157408    0.680814    0.000000
      6          6           0       -0.959088    1.425172    0.000001
      7          6           0        1.546926    1.176650   -0.000001
      8          6           0        2.360426    0.032633   -0.000001
      9          1           0       -0.839855   -2.490171    0.000002
     10          1           0       -3.032773   -1.296266   -0.000004
     11          1           0       -3.099508    1.188107    0.000002
     12          1           0       -0.970350    2.495113    0.000001
     13          1           0        1.870704    2.196487    0.000001
     14          1           0        3.430401    0.025257   -0.000003
     15          7           0        1.561740   -1.058388    0.000000
     16          1           0        1.873421   -2.008575    0.000002
 ---------------------------------------------------------------------
 Rotational constants (GHZ):      3.9201898      1.6790815      1.1755669
 Standard basis: 3-21+G (6D, 7F)
 There are   131 symmetry adapted cartesian basis functions of A   symmetry.
 There are   131 symmetry adapted basis functions of A   symmetry.
   131 basis functions,   192 primitive gaussians,   131 cartesian basis functions
    31 alpha electrons       31 beta electrons
       nuclear repulsion energy       404.0653063309 Hartrees.
 NAtoms=   16 NActive=   16 NUniq=   16 SFac= 1.00D+00 NAtFMM=   60 NAOKFM=F Big=F
 Integral buffers will be    131072 words long.
 Regular integral format.
 Two-electron integral symmetry is turned on.
 One-electron integrals computed using PRISM.
 NBasis=   131 RedAO= T EigKep=  1.43D-06  NBF=   131
 NBsUse=   131 1.00D-06 EigRej= -1.00D+00 NBFU=   131
 ExpMin= 4.38D-02 ExpMax= 2.43D+02 ExpMxC= 2.43D+02 IAcc=2 IRadAn=         4 AccDes= 0.00D+00
 Harris functional with IExCor=  402 and IRadAn=       4 diagonalized for initial guess.
 HarFok:  IExCor=  402 AccDes= 0.00D+00 IRadAn=         4 IDoV= 1 UseB2=F ITyADJ=14
 ICtDFT=  3500011 ScaDFX=  1.000000  1.000000  1.000000  1.000000
 FoFCou: FMM=F IPFlag=           0 FMFlag=      100000 FMFlg1=           0
         NFxFlg=           0 DoJE=T BraDBF=F KetDBF=T FulRan=T
         wScrn=  0.000000 ICntrl=     500 IOpCl=  0 I1Cent=   200000004 NGrid=           0
         NMat0=    1 NMatS0=      1 NMatT0=    0 NMatD0=    1 NMtDS0=    0 NMtDT0=    0
 Petite list used in FoFCou.
 Requested convergence on RMS density matrix=1.00D-08 within 128 cycles.
 Requested convergence on MAX density matrix=1.00D-06.
 Requested convergence on             energy=1.00D-06.
 No special actions if energy rises.
 SCF Done:  E(RB3LYP) =  -361.844782122     A.U. after   15 cycles
            NFock= 15  Conv=0.48D-08     -V/T= 2.0075
 DoSCS=F DFT=T ScalE2(SS,OS)=  1.000000  1.000000
 ExpMin= 4.38D-02 ExpMax= 2.43D+02 ExpMxC= 2.43D+02 IAcc=3 IRadAn=         5 AccDes= 0.00D+00
 HarFok:  IExCor=  205 AccDes= 0.00D+00 IRadAn=         5 IDoV=-2 UseB2=F ITyADJ=14
 ICtDFT= 12500011 ScaDFX=  1.000000  1.000000  1.000000  1.000000
 Range of M.O.s used for correlation:    10   131
 NBasis=   131 NAE=    31 NBE=    31 NFC=     9 NFV=     0
 NROrb=    122 NOA=    22 NOB=    22 NVA=   100 NVB=   100

 **** Warning!!: The largest alpha MO coefficient is  0.20100064D+03

 Would need an additional            81300000 words for in-memory AO integral storage.
 Orbital symmetries:
       Occupied  (A) (A) (A) (A) (A) (A) (A) (A) (A) (A) (A) (A)
                 (A) (A) (A) (A) (A) (A) (A) (A) (A) (A) (A) (A)
                 (A) (A) (A) (A) (A) (A) (A)
       Virtual   (A) (A) (A) (A) (A) (A) (A) (A) (A) (A) (A) (A)
                 (A) (A) (A) (A) (A) (A) (A) (A) (A) (A) (A) (A)
                 (A) (A) (A) (A) (A) (A) (A) (A) (A) (A) (A) (A)
                 (A) (A) (A) (A) (A) (A) (A) (A) (A) (A) (A) (A)
                 (A) (A) (A) (A) (A) (A) (A) (A) (A) (A) (A) (A)
                 (A) (A) (A) (A) (A) (A) (A) (A) (A) (A) (A) (A)
                 (A) (A) (A) (A) (A) (A) (A) (A) (A) (A) (A) (A)
                 (A) (A) (A) (A) (A) (A) (A) (A) (A) (A) (A) (A)
                 (A) (A) (A) (A)
    12 initial guesses have been made.
 Convergence on wavefunction:    0.000001000000000
 Iteration     1 Dimension    12 NMult     0 NNew     12
 CISAX will form    12 AO SS matrices at one time.
 New state      1 was old state      2
 New state      2 was old state      5
 New state      3 was old state      1
 Iteration     2 Dimension    18 NMult    12 NNew      6
 New state      1 was old state      3
 New state      2 was old state      1
 New state      3 was old state      2
 Iteration     3 Dimension    24 NMult    18 NNew      6
 Iteration     4 Dimension    30 NMult    24 NNew      6
 Iteration     5 Dimension    36 NMult    30 NNew      6
 Iteration     6 Dimension    42 NMult    36 NNew      6
 Iteration     7 Dimension    48 NMult    42 NNew      6
 Iteration     8 Dimension    54 NMult    48 NNew      6
 Iteration     9 Dimension    60 NMult    54 NNew      6
 Iteration    10 Dimension    66 NMult    60 NNew      6
 Iteration    11 Dimension    70 NMult    66 NNew      4
 ***********************************************************************
 Excited states from <AA,BB:AA,BB> singles matrix:
 ***********************************************************************
 
 Ground to excited state transition densities written to RWF  633
 Ground to excited state transition electric dipole moments (Au):
       state          X           Y           Z        Dip. S.      Osc.
         1        -0.7192      0.6375      0.0000      0.9237      0.1058
         2         0.0000      0.0000     -0.1442      0.0208      0.0024
         3        -0.2649     -0.2437      0.0000      0.1296      0.0158
 Ground to excited state transition velocity dipole moments (Au):
       state          X           Y           Z        Dip. S.      Osc.
         1         0.0992     -0.1038      0.0000      0.0206      0.0801
         2         0.0000      0.0000      0.0157      0.0002      0.0009
         3         0.0402      0.0407      0.0000      0.0033      0.0119
 Ground to excited state transition magnetic dipole moments (Au):
       state          X           Y           Z
         1         0.0000      0.0000      0.2550
         2         0.1094     -0.0573      0.0000
         3         0.0000      0.0000     -0.0020
 Ground to excited state transition velocity quadrupole moments (Au):
       state          XX          YY          ZZ          XY          XZ          YZ
         1         0.1666     -0.1125      0.0249      0.0555      0.0000      0.0000
         2         0.0000      0.0000      0.0000      0.0000      0.0561      0.0305
         3        -0.0053     -0.0520      0.0235      0.0023      0.0000      0.0000
 <0|del|b> * <b|rxdel|0> + <0|del|b> * <b|delr+rdel|0>
 Rotatory Strengths (R) in cgs (10**-40 erg-esu-cm/Gauss)
       state          XX          YY          ZZ    R(velocity)    E-M Angle
         1         0.0001     -0.0003     -0.0001     -0.0001       90.00
         2         0.0000      0.0000      0.0000      0.0000       90.00
         3         0.0000      0.0001      0.0000      0.0001       90.00
 1/2[<0|r|b>*<b|rxdel|0> + (<0|rxdel|b>*<b|r|0>)*]
 Rotatory Strengths (R) in cgs (10**-40 erg-esu-cm/Gauss)
       state          XX          YY          ZZ     R(length)
         1        -0.0005      0.0001     -0.0001     -0.0002
         2         0.0001      0.0000     -0.0001      0.0000
         3         0.0002      0.0000      0.0000      0.0001
  1/2[<0|del|b>*<b|r|0> + (<0|r|b>*<b|del|0>)*] (Au)
       state          X           Y           Z        Dip. S.   Osc.(frdel)
         1        -0.0714     -0.0662      0.0000      0.1376      0.0917
         2         0.0000      0.0000     -0.0023      0.0023      0.0015
         3        -0.0107     -0.0099      0.0000      0.0206      0.0137

 Excitation energies and oscillator strengths:
 
 Excited State   1:      Singlet-A      4.6749 eV  265.21 nm  f=0.1058  <S**2>=0.000
      30 -> 35         0.10959
      31 -> 32         0.67804
 This state for optimization and/or second-order correction.
 Total Energy, E(TD-HF/TD-KS) =  -361.672984224    
 Copying the excited state density for this state as the 1-particle RhoCI density.
 
 Excited State   2:      Singlet-A      4.7585 eV  260.55 nm  f=0.0024  <S**2>=0.000
      31 -> 33         0.70487
 
 Excited State   3:      Singlet-A      4.9879 eV  248.57 nm  f=0.0158  <S**2>=0.000
      30 -> 32         0.55918
      31 -> 35        -0.41770
 SavETr:  write IOETrn=   770 NScale= 10 NData=  16 NLR=1 NState=    3 LETran=      64.
          IDoAtm=1111111111111111
          Differentiating once with respect to electric field.
                with respect to dipole field.
          Differentiating once with respect to nuclear coordinates.
          There are     1 degrees of freedom in the 1st order CPHF.  IDoFFX=0 NUNeed=     1.
 LinEq1:  Iter=  0 NonCon=     1 RMS=1.67D-02 Max=4.40D-01 NDo=     1
 AX will form     1 AO Fock derivatives at one time.
 LinEq1:  Iter=  1 NonCon=     1 RMS=6.04D-03 Max=1.32D-01 NDo=     1
 LinEq1:  Iter=  2 NonCon=     1 RMS=5.33D-03 Max=1.48D-01 NDo=     1
 LinEq1:  Iter=  3 NonCon=     1 RMS=2.00D-03 Max=3.41D-02 NDo=     1
 LinEq1:  Iter=  4 NonCon=     1 RMS=1.54D-03 Max=3.56D-02 NDo=     1
 LinEq1:  Iter=  5 NonCon=     1 RMS=6.52D-04 Max=9.75D-03 NDo=     1
 LinEq1:  Iter=  6 NonCon=     1 RMS=4.01D-04 Max=9.59D-03 NDo=     1
 LinEq1:  Iter=  7 NonCon=     1 RMS=1.91D-04 Max=3.45D-03 NDo=     1
 LinEq1:  Iter=  8 NonCon=     1 RMS=9.27D-05 Max=1.56D-03 NDo=     1
 LinEq1:  Iter=  9 NonCon=     1 RMS=5.38D-05 Max=1.43D-03 NDo=     1
 LinEq1:  Iter= 10 NonCon=     1 RMS=2.13D-05 Max=4.06D-04 NDo=     1
 LinEq1:  Iter= 11 NonCon=     1 RMS=1.45D-05 Max=2.79D-04 NDo=     1
 LinEq1:  Iter= 12 NonCon=     1 RMS=3.83D-06 Max=6.53D-05 NDo=     1
 LinEq1:  Iter= 13 NonCon=     1 RMS=1.75D-06 Max=2.96D-05 NDo=     1
 LinEq1:  Iter= 14 NonCon=     1 RMS=6.24D-07 Max=9.95D-06 NDo=     1
 LinEq1:  Iter= 15 NonCon=     1 RMS=9.95D-08 Max=1.06D-06 NDo=     1
 LinEq1:  Iter= 16 NonCon=     1 RMS=7.60D-08 Max=1.45D-06 NDo=     1
 LinEq1:  Iter= 17 NonCon=     1 RMS=1.60D-08 Max=1.48D-07 NDo=     1
 LinEq1:  Iter= 18 NonCon=     1 RMS=2.00D-09 Max=2.23D-08 NDo=     1
 LinEq1:  Iter= 19 NonCon=     1 RMS=2.05D-10 Max=1.90D-09 NDo=     1
 LinEq1:  Iter= 20 NonCon=     0 RMS=3.21D-11 Max=2.75D-10 NDo=     1
 Linear equations converged to 1.000D-10 1.000D-09 after    20 iterations.
 End of Minotr F.D. properties file   721 does not exist.
 End of Minotr F.D. properties file   722 does not exist.
 End of Minotr F.D. properties file   788 does not exist.

 **********************************************************************

            Population analysis using the SCF density.

 **********************************************************************

 Orbital symmetries:
       Occupied  (A) (A) (A) (A) (A) (A) (A) (A) (A) (A) (A) (A)
                 (A) (A) (A) (A) (A) (A) (A) (A) (A) (A) (A) (A)
                 (A) (A) (A) (A) (A) (A) (A)
       Virtual   (A) (A) (A) (A) (A) (A) (A) (A) (A) (A) (A) (A)
                 (A) (A) (A) (A) (A) (A) (A) (A) (A) (A) (A) (A)
                 (A) (A) (A) (A) (A) (A) (A) (A) (A) (A) (A) (A)
                 (A) (A) (A) (A) (A) (A) (A) (A) (A) (A) (A) (A)
                 (A) (A) (A) (A) (A) (A) (A) (A) (A) (A) (A) (A)
                 (A) (A) (A) (A) (A) (A) (A) (A) (A) (A) (A) (A)
                 (A) (A) (A) (A) (A) (A) (A) (A) (A) (A) (A) (A)
                 (A) (A) (A) (A) (A) (A) (A) (A) (A) (A) (A) (A)
                 (A) (A) (A) (A)
 The electronic state is 1-A.
 Alpha  occ. eigenvalues --  -14.31783 -10.16823 -10.16217 -10.13507 -10.13081
 Alpha  occ. eigenvalues --  -10.12824 -10.12639 -10.12183 -10.11694  -1.02144
 Alpha  occ. eigenvalues --   -0.85525  -0.80151  -0.75104  -0.72511  -0.64601
 Alpha  occ. eigenvalues --   -0.61402  -0.59694  -0.55982  -0.50189  -0.48322
 Alpha  occ. eigenvalues --   -0.45835  -0.44619  -0.44555  -0.42191  -0.40770
 Alpha  occ. eigenvalues --   -0.36620  -0.35312  -0.34262  -0.28884  -0.23488
 Alpha  occ. eigenvalues --   -0.20794
 Alpha virt. eigenvalues --   -0.02197  -0.00452   0.01691   0.01954   0.02145
 Alpha virt. eigenvalues --    0.03683   0.03839   0.04378   0.06066   0.06201
 Alpha virt. eigenvalues --    0.06562   0.06690   0.08754   0.09078   0.10734
 Alpha virt. eigenvalues --    0.10899   0.11499   0.12886   0.13790   0.14163
 Alpha virt. eigenvalues --    0.15456   0.15877   0.16729   0.17136   0.17709
 Alpha virt. eigenvalues --    0.19034   0.19124   0.19238   0.20260   0.20631
 Alpha virt. eigenvalues --    0.20654   0.20889   0.22269   0.23251   0.23580
 Alpha virt. eigenvalues --    0.24250   0.24300   0.25095   0.26424   0.27003
 Alpha virt. eigenvalues --    0.28008   0.28248   0.29117   0.31191   0.31482
 Alpha virt. eigenvalues --    0.31963   0.33123   0.34578   0.37306   0.38210
 Alpha virt. eigenvalues --    0.39781   0.42149   0.45160   0.48391   0.55204
 Alpha virt. eigenvalues --    0.62006   0.65620   0.82775   0.84227   0.85367
 Alpha virt. eigenvalues --    0.86839   0.87844   0.88049   0.88317   0.89210
 Alpha virt. eigenvalues --    0.89664   0.90524   0.92667   0.93697   0.94077
 Alpha virt. eigenvalues --    0.97543   1.00210   1.04996   1.06977   1.07369
 Alpha virt. eigenvalues --    1.12234   1.14832   1.18040   1.18650   1.21037
 Alpha virt. eigenvalues --    1.27847   1.28178   1.31427   1.31917   1.39418
 Alpha virt. eigenvalues --    1.44976   1.51079   1.52957   1.58662   1.62467
 Alpha virt. eigenvalues --    1.67328   1.80030   1.82776   1.87312   1.91124
 Alpha virt. eigenvalues --    2.00507   2.07863   2.15235   2.50375   2.99518
     Molecular Orbital Coefficients:
                           1         2         3         4         5
                           O         O         O         O         O
     Eigenvalues --   -14.31783 -10.16823 -10.16217 -10.13507 -10.13081
   1 1   C  1S         -0.00024   0.00238  -0.00792   0.00079  -0.00891
   2        2S         -0.00153   0.00116  -0.00334   0.00090  -0.00198
   3        2PX         0.00106  -0.00023   0.00079   0.00007   0.00067
   4        2PY         0.00069   0.00018   0.00229   0.00048   0.00023
   5        2PZ         0.00000   0.00000   0.00000   0.00000   0.00000
   6        3S          0.01400  -0.02025   0.03661  -0.01492   0.01314
   7        3PX        -0.02425  -0.00709  -0.01818   0.01486  -0.01706
   8        3PY         0.00285   0.00302  -0.02954   0.00324  -0.00187
   9        3PZ         0.00000   0.00000   0.00000   0.00000   0.00000
  10        4S         -0.35515   0.55480   0.21538   0.38374  -0.03656
  11        4PX        -0.40797   0.13329   0.05352   0.21790   0.10829
  12        4PY         0.20309  -0.42864  -0.03945  -0.01934  -0.01667
  13        4PZ         0.00000   0.00000   0.00000   0.00000   0.00000
  14 2   C  1S          0.00009   0.00940   0.98656   0.01360   0.00124
  15        2S          0.00095   0.00103   0.11656  -0.00108   0.00065
  16        2PX         0.00004  -0.00093   0.00065   0.00240   0.00089
  17        2PY        -0.00012  -0.00057   0.00029   0.00082   0.00028
  18        2PZ         0.00000   0.00000   0.00000   0.00000   0.00000
  19        3S          0.01564  -0.00941  -0.12594   0.03922  -0.01430
  20        3PX         0.05505   0.01538   0.02215  -0.04272   0.00922
  21        3PY        -0.00530   0.01441  -0.01832  -0.00663  -0.00259
  22        3PZ         0.00000   0.00000   0.00000   0.00000   0.00000
  23        4S          0.05853  -0.50347   0.19537   0.08896   0.13695
  24        4PX         0.26115  -0.21073  -0.21310  -0.26918  -0.12326
  25        4PY         0.23080  -0.54066  -0.15445  -0.19071  -0.05846
  26        4PZ         0.00000   0.00000   0.00000   0.00000   0.00000
  27 3   C  1S         -0.00033  -0.00294  -0.01379   0.98129   0.10191
  28        2S         -0.00176  -0.00188  -0.00425   0.11468   0.00864
  29        2PX         0.00098  -0.00010  -0.00027   0.00021   0.00106
  30        2PY        -0.00053   0.00000  -0.00136   0.00160  -0.00100
  31        2PZ         0.00000   0.00000   0.00000   0.00000   0.00000
  32        3S          0.02965   0.01699   0.03535  -0.13143   0.02667
  33        3PX        -0.00259   0.01192   0.00403  -0.00597  -0.01079
  34        3PY         0.02494   0.00695   0.02522  -0.03746   0.02197
  35        3PZ         0.00000   0.00000   0.00000   0.00000   0.00000
  36        4S          0.43777  -0.39259  -0.41123  -0.27956  -0.35507
  37        4PX         0.11385  -0.25788  -0.13116  -0.13077  -0.03103
  38        4PY         0.04986  -0.00743  -0.06011  -0.01466  -0.05511
  39        4PZ         0.00000   0.00000   0.00000   0.00000   0.00000
  40 4   C  1S          0.00016  -0.00005   0.00030  -0.10257   0.97527
  41        2S          0.00050   0.00003   0.00083  -0.01493   0.11201
  42        2PX        -0.00095  -0.00012  -0.00082  -0.00148   0.00104
  43        2PY         0.00020   0.00026   0.00044  -0.00022   0.00075
  44        2PZ         0.00000   0.00000   0.00000   0.00000   0.00000
  45        3S         -0.01816  -0.00011  -0.01864   0.04837  -0.11115
  46        3PX        -0.00845  -0.00095  -0.01035   0.02978  -0.02180
  47        3PY        -0.00114  -0.00459  -0.00465   0.00686  -0.01577
  48        3PZ         0.00000   0.00000   0.00000   0.00000   0.00000
  49        4S         -0.05937  -0.03267   0.05868  -0.10902   0.32771
  50        4PX         0.00918  -0.06530  -0.01861  -0.03942   0.05043
  51        4PY        -0.04956   0.12642   0.06642   0.04776   0.05920
  52        4PZ         0.00000   0.00000   0.00000   0.00000   0.00000
  53 5   C  1S         -0.00010  -0.00010  -0.00241   0.00279  -0.10721
  54        2S         -0.00049  -0.00016  -0.00147   0.00134  -0.01546
  55        2PX        -0.00039  -0.00006  -0.00017   0.00014  -0.00082
  56        2PY         0.00022  -0.00005   0.00009   0.00073   0.00150
  57        2PZ         0.00000   0.00000   0.00000   0.00000   0.00000
  58        3S          0.00510   0.00356   0.01635  -0.02099   0.04680
  59        3PX         0.00634   0.00099   0.00965  -0.01337   0.01842
  60        3PY        -0.00458  -0.00121  -0.00249   0.00744  -0.02173
  61        3PZ         0.00000   0.00000   0.00000   0.00000   0.00000
  62        4S          0.06187  -0.03907  -0.02477  -0.02007  -0.28798
  63        4PX        -0.01013   0.04681   0.02475   0.01473  -0.03250
  64        4PY        -0.04040   0.12185   0.06036   0.02166   0.04404
  65        4PZ         0.00000   0.00000   0.00000   0.00000   0.00000
  66 6   C  1S          0.00019  -0.00053   0.00028  -0.00899   0.01005
  67        2S          0.00070  -0.00038   0.00084  -0.00221   0.00227
  68        2PX        -0.00050  -0.00025  -0.00062   0.00009   0.00050
  69        2PY         0.00071   0.00004   0.00022  -0.00002   0.00026
  70        2PZ         0.00000   0.00000   0.00000   0.00000   0.00000
  71        3S         -0.02051  -0.00114  -0.01643   0.02023  -0.02431
  72        3PX        -0.00651   0.00253   0.00354   0.00017  -0.00225
  73        3PY         0.00717   0.00022   0.01544  -0.01077   0.01717
  74        3PZ         0.00000   0.00000   0.00000   0.00000   0.00000
  75        4S         -0.48225   0.25830  -0.06154   0.10305   0.23618
  76        4PX        -0.09921   0.19284   0.05774   0.02395   0.00881
  77        4PY         0.05156  -0.00677   0.01732  -0.01277  -0.03900
  78        4PZ         0.00000   0.00000   0.00000   0.00000   0.00000
  79 7   C  1S          0.00013  -0.00327   0.00020  -0.00341  -0.00370
  80        2S          0.00044  -0.00073  -0.00046  -0.00114  -0.00112
  81        2PX        -0.00155  -0.00052  -0.00010   0.00029  -0.00010
  82        2PY         0.00019   0.00060  -0.00009   0.00035   0.00014
  83        2PZ         0.00000   0.00000   0.00000   0.00000   0.00000
  84        3S         -0.00018   0.02432   0.00419  -0.00378   0.01051
  85        3PX         0.00057   0.00169  -0.00838   0.00068  -0.00351
  86        3PY         0.01132  -0.01607   0.00484  -0.00271  -0.00462
  87        3PZ         0.00000   0.00000   0.00000   0.00000   0.00000
  88        4S          0.54851   0.06609  -0.00752  -0.36386  -0.11242
  89        4PX        -0.03585  -0.05046   0.05393   0.06438   0.00808
  90        4PY        -0.08590   0.01966  -0.01614   0.03115   0.01380
  91        4PZ         0.00000   0.00000   0.00000   0.00000   0.00000
  92 8   C  1S         -0.00018   0.98657  -0.00957   0.00237   0.00034
  93        2S         -0.00063   0.11500  -0.00137  -0.00060  -0.00003
  94        2PX        -0.00078  -0.00240   0.00013   0.00051   0.00009
  95        2PY        -0.00180  -0.00139  -0.00019   0.00028  -0.00006
  96        2PZ         0.00000   0.00000   0.00000   0.00000   0.00000
  97        3S          0.02537  -0.10424   0.00096  -0.00029  -0.00191
  98        3PX        -0.02282   0.02168  -0.00519  -0.00214   0.00159
  99        3PY        -0.00814  -0.00123   0.00480  -0.00053  -0.00128
 100        3PZ         0.00000   0.00000   0.00000   0.00000   0.00000
 101        4S         -0.21708   0.04880   0.00240   0.18244   0.08616
 102        4PX         0.03631  -0.00556  -0.01333  -0.04918  -0.01955
 103        4PY        -0.01443   0.01681  -0.04569  -0.01709  -0.00324
 104        4PZ         0.00000   0.00000   0.00000   0.00000   0.00000
 105 9   H  1S          0.00148  -0.00071   0.00058  -0.00214  -0.00003
 106        2S          0.00866   0.00338   0.00673   0.00108   0.00800
 107 10  H  1S         -0.00007  -0.00036  -0.00052   0.00054  -0.00217
 108        2S         -0.00065  -0.00147  -0.00134   0.00814   0.00430
 109 11  H  1S          0.00036  -0.00018  -0.00002  -0.00077   0.00024
 110        2S          0.00368   0.00083   0.00358  -0.00297   0.00797
 111 12  H  1S          0.00022  -0.00017  -0.00105   0.00023  -0.00080
 112        2S         -0.00107  -0.00022  -0.00364   0.00230  -0.00409
 113 13  H  1S         -0.00079  -0.00004  -0.00053   0.00041   0.00019
 114        2S         -0.00691   0.00234  -0.00034   0.00144   0.00093
 115 14  H  1S          0.00047  -0.00150   0.00031   0.00052  -0.00002
 116        2S          0.00883   0.00067   0.00419  -0.00064  -0.00073
 117 15  N  1S          0.98584   0.00033   0.00053  -0.00009   0.00000
 118        2S          0.11700   0.00093   0.00224  -0.00087  -0.00015
 119        2PX        -0.00128   0.00015   0.00013   0.00007   0.00024
 120        2PY         0.00232  -0.00023  -0.00021  -0.00028   0.00000
 121        2PZ         0.00000   0.00000   0.00000   0.00000   0.00000
 122        3S         -0.11048   0.00566  -0.00458   0.00974  -0.00155
 123        3PX         0.01513   0.00144   0.00348  -0.00297  -0.00012
 124        3PY        -0.02054   0.00217  -0.00028   0.00413   0.00013
 125        3PZ         0.00000   0.00000   0.00000   0.00000   0.00000
 126        4S          0.00554   0.07288   0.06139   0.02887   0.01343
 127        4PX        -0.00772   0.01768  -0.02793  -0.01103  -0.00885
 128        4PY         0.01075   0.06214   0.01316   0.00073  -0.00536
 129        4PZ         0.00000   0.00000   0.00000   0.00000   0.00000
 130 16  H  1S         -0.00072  -0.00141  -0.00035   0.00059   0.00015
 131        2S          0.00739   0.00396  -0.00308  -0.00056  -0.00181
                           6         7         8         9        10
                           O         O         O         O         O
     Eigenvalues --   -10.12824 -10.12639 -10.12183 -10.11694  -1.02144
   1 1   C  1S         -0.05348  -0.02602   0.98264   0.06728   0.05367
   2        2S         -0.00872  -0.00332   0.11639   0.00587  -0.05241
   3        2PX         0.00241   0.00143   0.00064  -0.00192  -0.02733
   4        2PY        -0.00095  -0.00040  -0.00125  -0.00068   0.03821
   5        2PZ         0.00000   0.00000   0.00000   0.00000   0.00000
   6        3S          0.04467  -0.00402  -0.13543   0.02650  -0.07217
   7        3PX        -0.04424  -0.00291  -0.00541   0.03359  -0.10118
   8        3PY         0.00570   0.00325   0.01903   0.00276   0.03691
   9        3PZ         0.00000   0.00000   0.00000   0.00000   0.00000
  10        4S          0.04517  -0.16658   1.29239   1.12261   2.22717
  11        4PX        -0.27745  -0.52919  -0.01761   0.53248  -0.58407
  12        4PY         0.00935   0.15485  -0.19505  -0.49790  -0.97428
  13        4PZ         0.00000   0.00000   0.00000   0.00000   0.00000
  14 2   C  1S         -0.00069   0.00195   0.00798   0.00032   0.10320
  15        2S          0.00093  -0.00042  -0.00120  -0.00035  -0.10112
  16        2PX         0.00003   0.00068   0.00038   0.00010  -0.09206
  17        2PY        -0.00022  -0.00013  -0.00187  -0.00049  -0.00368
  18        2PZ         0.00000   0.00000   0.00000   0.00000   0.00000
  19        3S         -0.01577   0.00662   0.03192  -0.00792  -0.15450
  20        3PX         0.01633  -0.00901  -0.01147  -0.00602   0.11659
  21        3PY        -0.00326   0.00021   0.02894  -0.00005  -0.00434
  22        3PZ         0.00000   0.00000   0.00000   0.00000   0.00000
  23        4S         -0.27567  -0.26749  -0.72100  -0.51436  -1.93134
  24        4PX         0.15775   0.35031  -0.07192  -0.42498  -0.20516
  25        4PY         0.01975   0.21996  -0.33081  -0.70337  -1.35551
  26        4PZ         0.00000   0.00000   0.00000   0.00000   0.00000
  27 3   C  1S          0.00517   0.01022   0.00070   0.00373   0.01992
  28        2S         -0.00048   0.00128   0.00063  -0.00038  -0.02312
  29        2PX        -0.00028   0.00066  -0.00069  -0.00031  -0.01719
  30        2PY         0.00020  -0.00041  -0.00012  -0.00047  -0.01235
  31        2PZ         0.00000   0.00000   0.00000   0.00000   0.00000
  32        3S          0.01954  -0.01056  -0.00953  -0.00115   0.03969
  33        3PX         0.00116  -0.00283   0.00620   0.00292  -0.00662
  34        3PY         0.01109  -0.00984  -0.01233   0.00213   0.05949
  35        3PZ         0.00000   0.00000   0.00000   0.00000   0.00000
  36        4S          0.33877   0.72613   0.07558  -0.63498  -0.11486
  37        4PX         0.01442   0.11894  -0.15671  -0.36246  -0.73963
  38        4PY         0.05085   0.09572   0.03990  -0.02479   0.10026
  39        4PZ         0.00000   0.00000   0.00000   0.00000   0.00000
  40 4   C  1S         -0.03571   0.10076   0.00896   0.00488   0.00627
  41        2S         -0.00258   0.00864  -0.00005   0.00000  -0.00479
  42        2PX         0.00040  -0.00036   0.00002  -0.00045  -0.00817
  43        2PY        -0.00064  -0.00151  -0.00026  -0.00016  -0.00082
  44        2PZ         0.00000   0.00000   0.00000   0.00000   0.00000
  45        3S         -0.02057   0.01988   0.01325   0.00073  -0.05606
  46        3PX        -0.01419   0.00949   0.00649   0.00201  -0.02105
  47        3PY        -0.00982   0.01907   0.00203  -0.00113  -0.00390
  48        3PZ         0.00000   0.00000   0.00000   0.00000   0.00000
  49        4S         -0.09878  -0.32917  -0.25141  -0.16869  -0.51113
  50        4PX        -0.02410  -0.02855  -0.08032  -0.09068  -0.29994
  51        4PY         0.00447  -0.07839   0.06775   0.14704   0.40106
  52        4PZ         0.00000   0.00000   0.00000   0.00000   0.00000
  53 5   C  1S         -0.23086   0.95298   0.01119   0.01109   0.00447
  54        2S         -0.02939   0.10854   0.00136   0.00029  -0.00579
  55        2PX        -0.00136   0.00086  -0.00052  -0.00074  -0.00544
  56        2PY         0.00023  -0.00046  -0.00038  -0.00001   0.00237
  57        2PZ         0.00000   0.00000   0.00000   0.00000   0.00000
  58        3S          0.06117  -0.09616  -0.00888  -0.00091   0.00254
  59        3PX         0.03171  -0.01460  -0.00506   0.00099   0.01693
  60        3PY        -0.00541   0.01032   0.00495  -0.00158  -0.01385
  61        3PZ         0.00000   0.00000   0.00000   0.00000   0.00000
  62        4S         -0.11417   0.36353   0.16765   0.03516   0.36915
  63        4PX        -0.02844   0.04582   0.06654   0.07383   0.25614
  64        4PY        -0.01016  -0.07701   0.04206   0.10507   0.38688
  65        4PZ         0.00000   0.00000   0.00000   0.00000   0.00000
  66 6   C  1S          0.95724   0.23188   0.05761   0.01048   0.01100
  67        2S          0.11245   0.02425   0.00451   0.00036  -0.00642
  68        2PX        -0.00022   0.00094  -0.00105   0.00001  -0.00852
  69        2PY        -0.00192   0.00081   0.00102   0.00016   0.00961
  70        2PZ         0.00000   0.00000   0.00000   0.00000   0.00000
  71        3S         -0.13535   0.00143   0.01368   0.01048  -0.09728
  72        3PX        -0.00533  -0.01040   0.00702   0.00102  -0.03244
  73        3PY         0.03990  -0.01301  -0.01348  -0.00784   0.02921
  74        3PZ         0.00000   0.00000   0.00000   0.00000   0.00000
  75        4S         -0.16687  -0.78964  -0.45327   0.48667  -1.19119
  76        4PX        -0.05645  -0.10528   0.01949   0.20541   0.44417
  77        4PY         0.00664   0.10597   0.08953  -0.02331   0.26957
  78        4PZ         0.00000   0.00000   0.00000   0.00000   0.00000
  79 7   C  1S         -0.00390  -0.01228  -0.06786   0.98434   0.04644
  80        2S         -0.00094  -0.00269  -0.00984   0.11549  -0.04171
  81        2PX        -0.00037   0.00048   0.00130  -0.00030   0.00629
  82        2PY        -0.00017  -0.00017   0.00078  -0.00225   0.04612
  83        2PZ         0.00000   0.00000   0.00000   0.00000   0.00000
  84        3S          0.01644   0.00711   0.03287  -0.12496  -0.07223
  85        3PX        -0.00359  -0.00349  -0.01264   0.01354  -0.00008
  86        3PY        -0.00800  -0.00137  -0.01696   0.03150   0.03877
  87        3PZ         0.00000   0.00000   0.00000   0.00000   0.00000
  88        4S          0.28808   0.65444  -0.29106  -0.46949   1.42219
  89        4PX        -0.04365  -0.07431   0.04838   0.03856  -0.07255
  90        4PY        -0.02060  -0.08345   0.05340   0.06783  -0.16530
  91        4PZ         0.00000   0.00000   0.00000   0.00000   0.00000
  92 8   C  1S          0.00057   0.00021  -0.00238   0.00359   0.09062
  93        2S         -0.00011  -0.00001   0.00069   0.00009  -0.08925
  94        2PX         0.00024   0.00017  -0.00013   0.00052   0.07677
  95        2PY        -0.00007   0.00009  -0.00034  -0.00065   0.05133
  96        2PZ         0.00000   0.00000   0.00000   0.00000   0.00000
  97        3S         -0.00537  -0.00228  -0.01544   0.02466  -0.13810
  98        3PX         0.00121   0.00061   0.00951  -0.01738  -0.02996
  99        3PY        -0.00120  -0.00006  -0.00196   0.01258  -0.00400
 100        3PZ         0.00000   0.00000   0.00000   0.00000   0.00000
 101        4S         -0.01650  -0.19325   0.16202   0.12287  -0.43633
 102        4PX         0.00085   0.03699  -0.03694  -0.01660   0.06350
 103        4PY         0.00289  -0.00580  -0.00779  -0.00250  -0.11610
 104        4PZ         0.00000   0.00000   0.00000   0.00000   0.00000
 105 9   H  1S          0.00031  -0.00068  -0.00087  -0.00004  -0.00415
 106        2S          0.00212  -0.00283  -0.00468   0.00186   0.02355
 107 10  H  1S         -0.00083  -0.00047  -0.00025  -0.00008  -0.00146
 108        2S         -0.00352   0.00880   0.00275   0.00086   0.00028
 109 11  H  1S          0.00060  -0.00224  -0.00066   0.00029  -0.00023
 110        2S          0.00759   0.00785  -0.00021  -0.00003   0.01415
 111 12  H  1S         -0.00235  -0.00085  -0.00060   0.00020  -0.00241
 112        2S          0.00176   0.00924   0.00699   0.00326   0.00032
 113 13  H  1S          0.00039   0.00019  -0.00015  -0.00263  -0.01004
 114        2S          0.00218  -0.00161   0.00648   0.00369  -0.01793
 115 14  H  1S          0.00014  -0.00019  -0.00036   0.00049  -0.01762
 116        2S         -0.00002   0.00103  -0.00196   0.00074   0.02038
 117 15  N  1S          0.00004  -0.00003  -0.00015   0.00002   0.18801
 118        2S          0.00017  -0.00025  -0.00126  -0.00009  -0.16025
 119        2PX         0.00010   0.00015   0.00055   0.00019   0.02425
 120        2PY        -0.00039  -0.00023  -0.00040  -0.00037  -0.06066
 121        2PZ         0.00000   0.00000   0.00000   0.00000   0.00000
 122        3S         -0.00481   0.00224   0.00621  -0.00345  -0.63008
 123        3PX         0.00115  -0.00163  -0.00343  -0.00329   0.05621
 124        3PY         0.00229   0.00214   0.00286  -0.00079  -0.09410
 125        3PZ         0.00000   0.00000   0.00000   0.00000   0.00000
 126        4S          0.00491   0.01225   0.04125   0.03981   0.28620
 127        4PX        -0.01058  -0.01379  -0.02456   0.01513  -0.06404
 128        4PY         0.01286   0.01028   0.02493   0.03616   0.19880
 129        4PZ         0.00000   0.00000   0.00000   0.00000   0.00000
 130 16  H  1S          0.00036   0.00019  -0.00048  -0.00047  -0.07628
 131        2S          0.00273   0.00124   0.00580   0.00572  -0.00246
                          11        12        13        14        15
                           O         O         O         O         O
     Eigenvalues --    -0.85525  -0.80151  -0.75104  -0.72511  -0.64601
   1 1   C  1S          0.11211   0.09981  -0.03735   0.05978   0.02445
   2        2S         -0.11171  -0.09895   0.03785  -0.06241  -0.02283
   3        2PX         0.03922  -0.07580   0.05676   0.09424   0.08642
   4        2PY         0.01988  -0.02492  -0.08519  -0.01204  -0.12024
   5        2PZ         0.00000   0.00000   0.00000   0.00000   0.00000
   6        3S         -0.24914  -0.24395   0.09062  -0.13694  -0.08748
   7        3PX         0.01459   0.00379   0.01479  -0.01781   0.06516
   8        3PY         0.01450   0.02575   0.00511  -0.01715  -0.03546
   9        3PZ         0.00000   0.00000   0.00000   0.00000   0.00000
  10        4S          3.38272   4.63321  -1.89215  -0.93746   1.59278
  11        4PX        -0.14123   1.64885  -2.19857  -2.02819   0.25026
  12        4PY        -0.61009  -2.21871   0.40072   1.31270  -0.24104
  13        4PZ         0.00000   0.00000   0.00000   0.00000   0.00000
  14 2   C  1S          0.07352  -0.03948  -0.12013   0.03826  -0.04356
  15        2S         -0.07425   0.04182   0.12469  -0.03999   0.04689
  16        2PX         0.08446  -0.02503  -0.02106  -0.06380   0.16397
  17        2PY        -0.05209  -0.11735  -0.00231  -0.01472   0.07065
  18        2PZ         0.00000   0.00000   0.00000   0.00000   0.00000
  19        3S         -0.16056   0.08689   0.29211  -0.09995   0.10340
  20        3PX        -0.03884  -0.07598   0.01745   0.03279   0.02619
  21        3PY        -0.01625  -0.00622   0.02870  -0.01781   0.06062
  22        3PZ         0.00000   0.00000   0.00000   0.00000   0.00000
  23        4S         -1.98687  -3.35649  -1.14174  -0.01337  -0.32791
  24        4PX        -0.44370  -1.01470   1.75664   1.54401  -0.49108
  25        4PY        -1.02010  -2.51054   0.94717   1.70108  -0.83159
  26        4PZ         0.00000   0.00000   0.00000   0.00000   0.00000
  27 3   C  1S          0.08643  -0.09386  -0.07227  -0.08578   0.08991
  28        2S         -0.08598   0.09833   0.07145   0.08739  -0.09433
  29        2PX         0.00492   0.00183   0.07318  -0.07718  -0.01781
  30        2PY        -0.05600   0.02667   0.01476   0.01373   0.01739
  31        2PZ         0.00000   0.00000   0.00000   0.00000   0.00000
  32        3S         -0.21787   0.17860   0.20998   0.24363  -0.26682
  33        3PX        -0.01017   0.02224   0.03649  -0.02641   0.00927
  34        3PY        -0.04915  -0.02645   0.00977   0.02048  -0.00878
  35        3PZ         0.00000   0.00000   0.00000   0.00000   0.00000
  36        4S         -0.05179  -1.25495   2.97482   2.94095  -0.61665
  37        4PX        -0.52492  -1.17729   0.62777   0.89337  -0.43864
  38        4PY         0.08255   0.03739   0.38967   0.28340   0.02871
  39        4PZ         0.00000   0.00000   0.00000   0.00000   0.00000
  40 4   C  1S          0.08720  -0.07612   0.05149  -0.11167  -0.04242
  41        2S         -0.09064   0.07681  -0.05309   0.11563   0.04389
  42        2PX        -0.04426   0.03593   0.03327   0.03042  -0.07748
  43        2PY        -0.02684  -0.00160  -0.07429  -0.03321   0.09630
  44        2PZ         0.00000   0.00000   0.00000   0.00000   0.00000
  45        3S         -0.16275   0.19693  -0.12210   0.27176   0.13424
  46        3PX        -0.00623   0.02203   0.00107  -0.00730  -0.02506
  47        3PY        -0.00137  -0.00203  -0.01526   0.00010   0.02171
  48        3PZ         0.00000   0.00000   0.00000   0.00000   0.00000
  49        4S         -0.75053  -0.74917  -0.62824  -0.74345  -0.33582
  50        4PX        -0.23632  -0.39522  -0.00019   0.03883  -0.13164
  51        4PY         0.22850   0.51902  -0.28772  -0.48530   0.15665
  52        4PZ         0.00000   0.00000   0.00000   0.00000   0.00000
  53 5   C  1S          0.08924  -0.03604   0.12917   0.00543  -0.08722
  54        2S         -0.09169   0.03672  -0.13218  -0.00543   0.08981
  55        2PX        -0.04857  -0.00157  -0.03158  -0.04818  -0.06029
  56        2PY         0.02199  -0.03570  -0.00226  -0.08532  -0.05164
  57        2PZ         0.00000   0.00000   0.00000   0.00000   0.00000
  58        3S         -0.18497   0.07609  -0.31800  -0.00825   0.25478
  59        3PX        -0.01616  -0.00030  -0.00696  -0.00363  -0.02250
  60        3PY         0.01479  -0.00398  -0.00260  -0.00853  -0.01588
  61        3PZ         0.00000   0.00000   0.00000   0.00000   0.00000
  62        4S          0.44553   0.33683   0.58503   0.65869  -0.42094
  63        4PX         0.20019   0.30368   0.00104  -0.08497  -0.04358
  64        4PY         0.12282   0.44493  -0.24286  -0.43594   0.07019
  65        4PZ         0.00000   0.00000   0.00000   0.00000   0.00000
  66 6   C  1S          0.09919   0.02432   0.09304   0.10638   0.06720
  67        2S         -0.10076  -0.02416  -0.09530  -0.10813  -0.07108
  68        2PX        -0.01050  -0.04743   0.06210  -0.02622  -0.09242
  69        2PY         0.05750  -0.00407   0.02307   0.02055  -0.01815
  70        2PZ         0.00000   0.00000   0.00000   0.00000   0.00000
  71        3S         -0.20671  -0.04821  -0.23525  -0.30097  -0.17770
  72        3PX        -0.00385  -0.01010   0.00246  -0.00479  -0.02304
  73        3PY         0.01937  -0.01439   0.00065   0.02307  -0.00918
  74        3PZ         0.00000   0.00000   0.00000   0.00000   0.00000
  75        4S         -1.27522   1.54093  -2.03975  -2.84783   0.28909
  76        4PX         0.06924   0.88241  -0.37153  -0.78108  -0.01127
  77        4PY         0.25482  -0.02006   0.23339   0.29704  -0.06351
  78        4PZ         0.00000   0.00000   0.00000   0.00000   0.00000
  79 7   C  1S          0.03392   0.12842  -0.00763  -0.07225   0.02865
  80        2S         -0.03562  -0.12594   0.00870   0.07147  -0.02762
  81        2PX         0.04196   0.03374  -0.03551   0.06253  -0.01394
  82        2PY         0.00643   0.06112  -0.00572  -0.05170  -0.05125
  83        2PZ         0.00000   0.00000   0.00000   0.00000   0.00000
  84        3S         -0.06744  -0.31553   0.02099   0.21118  -0.09473
  85        3PX        -0.00403   0.02242   0.00692  -0.00150   0.00478
  86        3PY        -0.00965   0.02487  -0.00194  -0.02374  -0.03833
  87        3PZ         0.00000   0.00000   0.00000   0.00000   0.00000
  88        4S         -0.47871  -1.74040   3.16490   1.51126  -0.64323
  89        4PX         0.06590   0.04185  -0.51889  -0.05577   0.06368
  90        4PY         0.11942   0.36304  -0.34034  -0.20859   0.08860
  91        4PZ         0.00000   0.00000   0.00000   0.00000   0.00000
  92 8   C  1S         -0.03001   0.07059   0.06630  -0.10700   0.04630
  93        2S          0.03263  -0.06726  -0.06955   0.10945  -0.04812
  94        2PX        -0.00708   0.04750  -0.00423  -0.02084  -0.08322
  95        2PY        -0.05092  -0.06962   0.06050   0.04090   0.01755
  96        2PZ         0.00000   0.00000   0.00000   0.00000   0.00000
  97        3S          0.03817  -0.18625  -0.15873   0.27879  -0.15912
  98        3PX         0.01945   0.04599  -0.01471  -0.01436  -0.03733
  99        3PY         0.00425  -0.00462  -0.00344   0.01294   0.00421
 100        3PZ         0.00000   0.00000   0.00000   0.00000   0.00000
 101        4S          0.63065   0.50461  -0.97696  -0.49145   0.44591
 102        4PX        -0.14883  -0.03678   0.22548   0.07644  -0.11516
 103        4PY        -0.05922   0.08778   0.09645  -0.04515   0.01028
 104        4PZ         0.00000   0.00000   0.00000   0.00000   0.00000
 105 9   H  1S         -0.02879   0.04293   0.03768   0.04887  -0.07409
 106        2S         -0.01545  -0.00602   0.00995   0.01025  -0.03329
 107 10  H  1S         -0.03042   0.03252  -0.02772   0.06502   0.03628
 108        2S          0.00832   0.00198  -0.00369   0.01541   0.01058
 109 11  H  1S         -0.03123   0.01520  -0.06684  -0.00251   0.07226
 110        2S          0.00320  -0.00437  -0.00639   0.00130   0.02569
 111 12  H  1S         -0.03556  -0.01396  -0.04748  -0.05860  -0.05433
 112        2S          0.00870   0.00439  -0.00072  -0.01131  -0.02230
 113 13  H  1S         -0.01173  -0.04969  -0.00032   0.03391  -0.04183
 114        2S          0.00988   0.00076  -0.01315   0.01034  -0.00851
 115 14  H  1S          0.01314  -0.02545  -0.04233   0.06134  -0.06988
 116        2S         -0.00800  -0.02759  -0.00640   0.03274  -0.03477
 117 15  N  1S         -0.07455  -0.07117   0.04474   0.03991   0.00871
 118        2S          0.06766   0.06179  -0.04135  -0.03655  -0.00951
 119        2PX         0.04475  -0.03308  -0.14439   0.08263  -0.16437
 120        2PY        -0.00826  -0.09695   0.00536   0.08301   0.13861
 121        2PZ         0.00000   0.00000   0.00000   0.00000   0.00000
 122        3S          0.26805   0.28008  -0.17437  -0.16626  -0.01927
 123        3PX         0.01972  -0.04145  -0.10821   0.07014  -0.14344
 124        3PY         0.01887  -0.05257  -0.00417   0.05922   0.13161
 125        3PZ         0.00000   0.00000   0.00000   0.00000   0.00000
 126        4S          0.19776   0.16932  -0.08449  -0.12778   0.00676
 127        4PX        -0.10921   0.06474   0.04100  -0.08538   0.00741
 128        4PY         0.04367   0.13559   0.07008  -0.04914   0.09751
 129        4PZ         0.00000   0.00000   0.00000   0.00000   0.00000
 130 16  H  1S          0.05424   0.07845  -0.05498  -0.05362  -0.10687
 131        2S          0.00847   0.02508   0.00299  -0.00723  -0.00893
                          16        17        18        19        20
                           O         O         O         O         O
     Eigenvalues --    -0.61402  -0.59694  -0.55982  -0.50189  -0.48322
   1 1   C  1S          0.02825  -0.09096  -0.02758   0.02278   0.06140
   2        2S         -0.02900   0.09361   0.02800  -0.02049  -0.06170
   3        2PX        -0.12090  -0.04441  -0.01775  -0.15195  -0.03638
   4        2PY        -0.12219  -0.02855  -0.10884   0.03386   0.02705
   5        2PZ         0.00000   0.00000   0.00000   0.00000   0.00000
   6        3S         -0.06458   0.30100   0.09681  -0.11069  -0.25239
   7        3PX        -0.04087  -0.01171  -0.06176  -0.07083  -0.01876
   8        3PY        -0.05840  -0.03985  -0.02598   0.05332  -0.00820
   9        3PZ         0.00000   0.00000   0.00000   0.00000   0.00000
  10        4S          1.35612  -0.42580  -0.69253   0.86266   1.40755
  11        4PX         0.70422   0.54130   0.15268   0.25749   0.40412
  12        4PY         0.01072  -0.36211   0.02267  -0.18490  -0.00202
  13        4PZ         0.00000   0.00000   0.00000   0.00000   0.00000
  14 2   C  1S         -0.04402   0.03788  -0.04287  -0.03672   0.02865
  15        2S          0.04630  -0.04047   0.04463   0.03998  -0.02835
  16        2PX        -0.08936  -0.01529  -0.14859   0.13328   0.01643
  17        2PY         0.05812   0.18561   0.06174  -0.06736  -0.04481
  18        2PZ         0.00000   0.00000   0.00000   0.00000   0.00000
  19        3S          0.12993  -0.12097   0.18676   0.14716  -0.13056
  20        3PX        -0.04103   0.00348  -0.05134  -0.00130  -0.03434
  21        3PY         0.00366   0.04823   0.02939  -0.00682  -0.00544
  22        3PZ         0.00000   0.00000   0.00000   0.00000   0.00000
  23        4S         -0.16492   0.22279  -0.30520  -0.42828  -0.06534
  24        4PX        -0.22791  -0.44060   0.25652  -0.06950  -0.28865
  25        4PY        -0.28448  -0.49017   0.28452  -0.28238  -0.39448
  26        4PZ         0.00000   0.00000   0.00000   0.00000   0.00000
  27 3   C  1S         -0.02096   0.03506   0.04681   0.06026  -0.00232
  28        2S          0.02190  -0.03641  -0.04534  -0.05848   0.00604
  29        2PX         0.06116  -0.14190   0.10817  -0.02521  -0.09240
  30        2PY         0.04157   0.04834   0.13651   0.06345   0.13997
  31        2PZ         0.00000   0.00000   0.00000   0.00000   0.00000
  32        3S          0.05590  -0.11823  -0.15814  -0.25748  -0.02262
  33        3PX         0.00074  -0.07063   0.03656  -0.00995  -0.03832
  34        3PY         0.03809   0.03315   0.07562   0.00012   0.08338
  35        3PZ         0.00000   0.00000   0.00000   0.00000   0.00000
  36        4S         -0.37503  -0.50156   0.73403   0.27605  -0.46224
  37        4PX        -0.10973  -0.35134   0.14825  -0.17075  -0.23566
  38        4PY        -0.01006  -0.00294   0.10645   0.10222  -0.02176
  39        4PZ         0.00000   0.00000   0.00000   0.00000   0.00000
  40 4   C  1S          0.06300  -0.07624   0.02105  -0.06265  -0.01032
  41        2S         -0.06409   0.07908  -0.02040   0.06375   0.01397
  42        2PX         0.05785  -0.00234   0.00361  -0.07806   0.21057
  43        2PY         0.00773  -0.04805   0.14723  -0.02154   0.04875
  44        2PZ         0.00000   0.00000   0.00000   0.00000   0.00000
  45        3S         -0.20865   0.23311  -0.08513   0.24989   0.02779
  46        3PX         0.02125   0.00851   0.01090  -0.02454   0.13522
  47        3PY         0.01150  -0.00596   0.07536  -0.01374   0.03658
  48        3PZ         0.00000   0.00000   0.00000   0.00000   0.00000
  49        4S         -0.03351  -0.52765   0.10585  -0.68133  -0.14974
  50        4PX         0.03811  -0.14601   0.01741  -0.16213  -0.03491
  51        4PY         0.01949   0.07069   0.01446  -0.00095   0.08234
  52        4PZ         0.00000   0.00000   0.00000   0.00000   0.00000
  53 5   C  1S          0.00203   0.07236  -0.04041   0.05835   0.00990
  54        2S         -0.00248  -0.07419   0.04251  -0.05868  -0.00659
  55        2PX         0.05922   0.00766  -0.01878   0.05674   0.22075
  56        2PY         0.06104  -0.11307  -0.07903  -0.10157  -0.05338
  57        2PZ         0.00000   0.00000   0.00000   0.00000   0.00000
  58        3S         -0.00621  -0.23239   0.13171  -0.22674  -0.05439
  59        3PX         0.03611   0.00565   0.01221   0.02072   0.13789
  60        3PY         0.01392  -0.04357  -0.04726  -0.05481  -0.02607
  61        3PZ         0.00000   0.00000   0.00000   0.00000   0.00000
  62        4S          0.00506   0.24918  -0.48662   0.69970   0.06136
  63        4PX         0.01568   0.09306  -0.11117   0.17608   0.06744
  64        4PY        -0.07282   0.04349  -0.00009  -0.01239   0.01282
  65        4PZ         0.00000   0.00000   0.00000   0.00000   0.00000
  66 6   C  1S         -0.02817   0.02560   0.07607  -0.04450  -0.01733
  67        2S          0.02929  -0.02676  -0.07525   0.04716   0.01920
  68        2PX        -0.04862   0.14384  -0.00614   0.10784  -0.07799
  69        2PY        -0.03732  -0.05238  -0.12314   0.01722  -0.08706
  70        2PZ         0.00000   0.00000   0.00000   0.00000   0.00000
  71        3S          0.08360  -0.07105  -0.29266   0.16268   0.06589
  72        3PX        -0.02276   0.05793  -0.02123   0.04027  -0.01296
  73        3PY        -0.02516  -0.02987  -0.05062  -0.00050  -0.06423
  74        3PZ         0.00000   0.00000   0.00000   0.00000   0.00000
  75        4S          0.32120   0.94984   0.80455  -0.31223  -0.08237
  76        4PX        -0.08754   0.28410  -0.00361   0.12202  -0.01202
  77        4PY        -0.03212  -0.11648  -0.16732   0.10011   0.00927
  78        4PZ         0.00000   0.00000   0.00000   0.00000   0.00000
  79 7   C  1S          0.10780   0.06959  -0.02360   0.02170  -0.04467
  80        2S         -0.10940  -0.07095   0.02086  -0.02472   0.04450
  81        2PX         0.08588  -0.11274   0.04136   0.13632   0.09136
  82        2PY        -0.07402  -0.01704   0.02714   0.06055   0.05313
  83        2PZ         0.00000   0.00000   0.00000   0.00000   0.00000
  84        3S         -0.33173  -0.22752   0.10123  -0.05571   0.17206
  85        3PX         0.02532  -0.04830   0.02535   0.07193   0.02784
  86        3PY        -0.02009   0.00032   0.00494   0.02919   0.02550
  87        3PZ         0.00000   0.00000   0.00000   0.00000   0.00000
  88        4S         -1.16578   0.10206  -0.17058  -0.33182  -0.99648
  89        4PX         0.20862  -0.02601  -0.02075   0.07333   0.21000
  90        4PY         0.09417  -0.03765   0.04177   0.02535   0.11411
  91        4PZ         0.00000   0.00000   0.00000   0.00000   0.00000
  92 8   C  1S         -0.09565   0.02710  -0.01596  -0.03647   0.02676
  93        2S          0.10235  -0.02631   0.01334   0.03600  -0.02344
  94        2PX         0.02193  -0.02488   0.12969   0.16504  -0.17608
  95        2PY        -0.09061  -0.15248   0.06245   0.10812   0.02164
  96        2PZ         0.00000   0.00000   0.00000   0.00000   0.00000
  97        3S          0.27953  -0.10229   0.08194   0.14844  -0.13366
  98        3PX         0.01906  -0.00992   0.05620   0.11053  -0.08982
  99        3PY        -0.01421  -0.03934   0.00513   0.04047   0.02992
 100        3PZ         0.00000   0.00000   0.00000   0.00000   0.00000
 101        4S          0.08733  -0.11606   0.02246  -0.07114   0.20935
 102        4PX        -0.00516   0.02276   0.01117   0.04265  -0.07519
 103        4PY        -0.03692  -0.03075   0.04774  -0.00694  -0.02490
 104        4PZ         0.00000   0.00000   0.00000   0.00000   0.00000
 105 9   H  1S         -0.00252  -0.05216  -0.10505  -0.09633  -0.08546
 106        2S          0.00371  -0.01940  -0.05465  -0.06867  -0.05780
 107 10  H  1S         -0.07045   0.07047  -0.05709   0.10235  -0.11119
 108        2S         -0.02802   0.03885  -0.02359   0.06143  -0.07013
 109 11  H  1S         -0.01167  -0.08262   0.02257  -0.10817  -0.13839
 110        2S         -0.00195  -0.03675   0.02026  -0.06736  -0.08775
 111 12  H  1S          0.00390  -0.04522  -0.12336   0.05211  -0.03289
 112        2S          0.00200  -0.02228  -0.06295   0.03158  -0.01823
 113 13  H  1S         -0.10162  -0.07763   0.03756   0.03417   0.09055
 114        2S         -0.03982  -0.03778   0.01745   0.02607   0.06138
 115 14  H  1S          0.08682  -0.03380   0.08041   0.13348  -0.13732
 116        2S          0.03378  -0.01793   0.04959   0.07324  -0.09727
 117 15  N  1S          0.03421  -0.02069   0.01388   0.00023  -0.02853
 118        2S         -0.03535   0.02003  -0.01424  -0.00323   0.02394
 119        2PX         0.07874   0.15514   0.07335  -0.22738  -0.01127
 120        2PY         0.21297   0.02642  -0.20044   0.00156   0.06455
 121        2PZ         0.00000   0.00000   0.00000   0.00000   0.00000
 122        3S         -0.13116   0.08513  -0.07141   0.01972   0.15508
 123        3PX         0.06286   0.13528   0.06987  -0.21010  -0.02597
 124        3PY         0.18552   0.03397  -0.18989   0.00588   0.07644
 125        3PZ         0.00000   0.00000   0.00000   0.00000   0.00000
 126        4S         -0.07689   0.05446  -0.03013  -0.00271   0.07235
 127        4PX        -0.00500   0.03254   0.01333  -0.00811  -0.02210
 128        4PY         0.01864   0.02937  -0.07619   0.02415   0.05697
 129        4PZ         0.00000   0.00000   0.00000   0.00000   0.00000
 130 16  H  1S         -0.13283   0.03306   0.12131  -0.05550  -0.01909
 131        2S         -0.03485   0.01342   0.03915  -0.02814  -0.00474
                          21        22        23        24        25
                           O         O         O         O         O
     Eigenvalues --    -0.45835  -0.44619  -0.44555  -0.42191  -0.40770
   1 1   C  1S         -0.00136   0.03458   0.00000  -0.00145  -0.01837
   2        2S          0.00200  -0.03661   0.00000   0.00212   0.02084
   3        2PX         0.07335   0.10392   0.00000  -0.05291   0.19548
   4        2PY        -0.18064  -0.06610   0.00000  -0.14646   0.08043
   5        2PZ         0.00000   0.00000   0.15685   0.00000   0.00000
   6        3S         -0.02773  -0.12972   0.00000   0.01591   0.06698
   7        3PX         0.03388   0.05348   0.00000  -0.02144   0.12203
   8        3PY        -0.08902  -0.01850   0.00000  -0.07078   0.06353
   9        3PZ         0.00000   0.00000   0.12007   0.00000   0.00000
  10        4S          0.07350   0.45617   0.00000   0.42796  -0.24339
  11        4PX         0.03349  -0.42733  -0.00001   0.06149   0.17868
  12        4PY         0.39482  -0.03265   0.00000  -0.17438  -0.24678
  13        4PZ         0.00000   0.00000  -0.03924   0.00000   0.00000
  14 2   C  1S          0.01073  -0.04486   0.00000  -0.02651   0.01390
  15        2S         -0.01212   0.04607   0.00000   0.02954  -0.01326
  16        2PX         0.07454  -0.14637   0.00000   0.05469   0.14854
  17        2PY         0.16411   0.01644   0.00000   0.16417  -0.01428
  18        2PZ         0.00000   0.00000   0.23178   0.00000   0.00000
  19        3S         -0.02869   0.19439   0.00000   0.11383  -0.07719
  20        3PX         0.08979  -0.06521   0.00000   0.00197   0.09066
  21        3PY         0.13215   0.01537   0.00000   0.08993   0.01500
  22        3PZ         0.00000   0.00000   0.17171   0.00000   0.00000
  23        4S          0.87179  -0.70503  -0.00002  -0.21434   0.15357
  24        4PX        -0.18161   0.33798   0.00001  -0.07950  -0.15491
  25        4PY         0.16107   0.02971   0.00000  -0.27560  -0.25388
  26        4PZ         0.00000   0.00000   0.02836   0.00000   0.00000
  27 3   C  1S          0.00744   0.00395   0.00000   0.00457  -0.01794
  28        2S         -0.01046  -0.00076   0.00000  -0.00451   0.01879
  29        2PX        -0.18265   0.02524   0.00000  -0.11941  -0.15603
  30        2PY        -0.02725   0.26146   0.00000  -0.02626   0.04416
  31        2PZ         0.00000   0.00000   0.09557   0.00000   0.00000
  32        3S          0.01080  -0.03029   0.00000  -0.03022   0.07558
  33        3PX        -0.07349  -0.00912   0.00000  -0.09165  -0.06975
  34        3PY        -0.00229   0.17947   0.00000  -0.02320   0.03171
  35        3PZ         0.00000   0.00000   0.06330   0.00000   0.00000
  36        4S         -0.32678   0.84006   0.00003  -0.24035  -0.46665
  37        4PX        -0.02562   0.06256   0.00000  -0.11743  -0.19433
  38        4PY        -0.06455   0.18306   0.00000  -0.00496  -0.06331
  39        4PZ         0.00000   0.00000  -0.00401   0.00000   0.00000
  40 4   C  1S         -0.00652  -0.02448   0.00000   0.01299  -0.00816
  41        2S          0.00629   0.02506   0.00000  -0.01426   0.01199
  42        2PX         0.06704   0.02490   0.00000   0.00137   0.23906
  43        2PY        -0.16134  -0.06032   0.00000  -0.18085   0.06706
  44        2PZ         0.00000   0.00000   0.04706   0.00000   0.00000
  45        3S          0.02736   0.08764   0.00000  -0.04634   0.01398
  46        3PX         0.03823  -0.00670   0.00000  -0.00972   0.16429
  47        3PY        -0.09994  -0.00719   0.00000  -0.10625   0.05213
  48        3PZ         0.00000   0.00000   0.03337   0.00000   0.00000
  49        4S         -0.07437  -0.56735  -0.00001   0.02789   0.15702
  50        4PX         0.01313  -0.07399   0.00000  -0.01404   0.01414
  51        4PY        -0.04214  -0.10204   0.00000   0.03850   0.12649
  52        4PZ         0.00000   0.00000   0.00792   0.00000   0.00000
  53 5   C  1S          0.01128   0.03258   0.00000  -0.00152  -0.02280
  54        2S         -0.01116  -0.03498   0.00000  -0.00018   0.02348
  55        2PX         0.11674  -0.10528   0.00000  -0.00707   0.00656
  56        2PY         0.14592   0.04995   0.00000   0.18568  -0.04098
  57        2PZ         0.00000   0.00000   0.03979   0.00000   0.00000
  58        3S         -0.04795  -0.11495   0.00000   0.01483   0.09530
  59        3PX         0.05930  -0.05777   0.00000  -0.01308   0.01476
  60        3PY         0.07173   0.05458   0.00000   0.10670  -0.00755
  61        3PZ         0.00000   0.00000   0.03118   0.00000   0.00000
  62        4S          0.07597   0.50255   0.00001  -0.07291  -0.25221
  63        4PX         0.01520   0.05461   0.00000   0.00148  -0.01683
  64        4PY        -0.06737  -0.08919   0.00000   0.05398   0.09788
  65        4PZ         0.00000   0.00000  -0.01091   0.00000   0.00000
  66 6   C  1S         -0.01953  -0.00576   0.00000   0.01250   0.02629
  67        2S          0.01798   0.00152   0.00000  -0.01152  -0.02733
  68        2PX        -0.17747  -0.05000   0.00000  -0.10075  -0.03360
  69        2PY        -0.00065   0.28762   0.00000  -0.06497   0.07261
  70        2PZ         0.00000   0.00000   0.06798   0.00000   0.00000
  71        3S          0.07918   0.04519   0.00000  -0.05416  -0.10399
  72        3PX        -0.10299  -0.02395   0.00000  -0.06348  -0.00397
  73        3PY        -0.01271   0.19027   0.00000  -0.04507   0.05910
  74        3PZ         0.00000   0.00000   0.04100   0.00000   0.00000
  75        4S         -0.39757  -0.78757  -0.00002   0.09457   0.54576
  76        4PX        -0.17471  -0.07796   0.00000   0.03571   0.15037
  77        4PY         0.03360   0.16740   0.00000  -0.02504  -0.06710
  78        4PZ         0.00000   0.00000   0.02772   0.00000   0.00000
  79 7   C  1S          0.00279  -0.00880   0.00000  -0.00524   0.01452
  80        2S         -0.00336   0.01013   0.00000   0.00063  -0.01483
  81        2PX         0.06029  -0.01153   0.00000   0.04398  -0.22830
  82        2PY        -0.18798   0.00903   0.00000   0.30101   0.05090
  83        2PZ         0.00000   0.00000   0.11819   0.00000   0.00000
  84        3S         -0.01833   0.02898   0.00000   0.04292  -0.03983
  85        3PX         0.03528  -0.01013   0.00000   0.04572  -0.11778
  86        3PY        -0.12734   0.01048   0.00000   0.20375   0.00481
  87        3PZ         0.00000   0.00000   0.08338   0.00000   0.00000
  88        4S         -0.39545   0.37923   0.00002  -0.01988   0.14098
  89        4PX         0.09000  -0.07623   0.00000  -0.00917  -0.07054
  90        4PY        -0.02851  -0.02438   0.00000   0.06050  -0.00288
  91        4PZ         0.00000   0.00000   0.01252   0.00000   0.00000
  92 8   C  1S         -0.00435   0.00791   0.00000   0.03300   0.00950
  93        2S          0.00031  -0.00755   0.00000  -0.03526  -0.01310
  94        2PX         0.03138  -0.03545   0.00000   0.10783   0.23070
  95        2PY         0.19935  -0.03355   0.00000  -0.14130  -0.09347
  96        2PZ         0.00000   0.00000   0.17334   0.00000   0.00000
  97        3S          0.04954  -0.03560   0.00000  -0.13920  -0.03804
  98        3PX        -0.01437  -0.02560   0.00000   0.09302   0.18828
  99        3PY         0.08003  -0.01304   0.00000  -0.06717  -0.07870
 100        3PZ         0.00000   0.00000   0.12712   0.00000   0.00000
 101        4S          0.19102  -0.09500  -0.00001  -0.00476  -0.04516
 102        4PX        -0.06056   0.01829   0.00000   0.01378   0.06081
 103        4PY         0.01163   0.03115   0.00000  -0.00167  -0.00239
 104        4PZ         0.00000   0.00000   0.00464   0.00000   0.00000
 105 9   H  1S          0.00720  -0.17785   0.00000   0.00929  -0.01662
 106        2S          0.01148  -0.12663   0.00000   0.00790  -0.01614
 107 10  H  1S          0.02282   0.03162   0.00000   0.04975  -0.16098
 108        2S          0.01509   0.02009   0.00000   0.03803  -0.12573
 109 11  H  1S         -0.03245   0.04111   0.00000   0.06563   0.00793
 110        2S         -0.02233   0.03212   0.00000   0.04919   0.00129
 111 12  H  1S          0.01869   0.19264   0.00000  -0.05286   0.02196
 112        2S          0.01414   0.13548   0.00000  -0.03250   0.01502
 113 13  H  1S         -0.10372   0.01702   0.00000   0.21098  -0.03215
 114        2S         -0.06540   0.01269   0.00000   0.15150  -0.01644
 115 14  H  1S          0.02533  -0.03319   0.00000   0.03574   0.16211
 116        2S          0.03490  -0.02363   0.00000   0.01843   0.12131
 117 15  N  1S          0.01420   0.00450   0.00000  -0.01565  -0.00131
 118        2S         -0.01187  -0.00538   0.00000   0.01317   0.00086
 119        2PX        -0.05765   0.08940   0.00000   0.02105  -0.11525
 120        2PY        -0.19987  -0.01289   0.00000   0.07184   0.00570
 121        2PZ         0.00000  -0.00001   0.30314   0.00000   0.00000
 122        3S         -0.09203  -0.02642   0.00000   0.08890   0.01484
 123        3PX        -0.04961   0.08905   0.00000   0.03013  -0.10962
 124        3PY        -0.20367  -0.01004   0.00000   0.08370   0.01781
 125        3PZ         0.00000   0.00000   0.29340   0.00000   0.00000
 126        4S         -0.04083  -0.02529   0.00000   0.06068   0.01220
 127        4PX        -0.00398   0.03023   0.00000   0.01705  -0.00943
 128        4PY        -0.08629   0.00995   0.00000   0.06668   0.03040
 129        4PZ         0.00000   0.00000   0.03369   0.00000   0.00000
 130 16  H  1S          0.12195   0.02232   0.00000  -0.03408  -0.03812
 131        2S          0.07312   0.01515   0.00000  -0.02071  -0.02438
                          26        27        28        29        30
                           O         O         O         O         O
     Eigenvalues --    -0.36620  -0.35312  -0.34262  -0.28884  -0.23488
   1 1   C  1S          0.01617   0.00349   0.00000   0.00000   0.00000
   2        2S         -0.01823  -0.00332   0.00000   0.00000   0.00000
   3        2PX         0.20120  -0.08347   0.00000   0.00000   0.00000
[...]
 127        4PX         0.00000   0.00000  -0.00574   0.00000   0.00000
 128        4PY         0.00000   0.00000   0.00000   0.03000   0.00000
 129        4PZ         0.01861   0.00000   0.00000   0.00000   0.09151
 130 16  H  1S          0.00000   0.06458   0.00991   0.09531   0.00000
 131        2S          0.00000   0.00112   0.00315   0.04009   0.00000
                         126       127       128       129       130
 126        4S          0.41423
 127        4PX         0.00000   0.07415
 128        4PY         0.00000   0.00000   0.21599
 129        4PZ         0.00000   0.00000   0.00000   0.07135
 130 16  H  1S          0.00515   0.00162   0.01908   0.00000   0.17500
 131        2S          0.00799   0.00123   0.00895   0.00000   0.04048
                         131
 131        2S          0.03079
     Gross orbital populations:
                           1
   1 1   C  1S          1.98804
   2        2S          0.39281
   3        2PX         0.62069
   4        2PY         0.60944
   5        2PZ         0.46355
   6        3S          0.91135
   7        3PX         0.30963
   8        3PY         0.25118
   9        3PZ         0.54455
  10        4S         -6.93023
  11        4PX        -2.14502
  12        4PY         0.38539
  13        4PZ        -0.02522
  14 2   C  1S          1.98765
  15        2S          0.39653
  16        2PX         0.54395
  17        2PY         0.63172
  18        2PZ         0.49007
  19        3S          0.84410
  20        3PX         0.07400
  21        3PY         0.24530
  22        3PZ         0.53979
  23        4S          2.66634
  24        4PX         0.41945
  25        4PY         2.17078
  26        4PZ         0.03006
  27 3   C  1S          1.98754
  28        2S          0.39138
  29        2PX         0.59743
  30        2PY         0.59725
  31        2PZ         0.45547
  32        3S          0.99133
  33        3PX         0.28787
  34        3PY         0.42272
  35        3PZ         0.54816
  36        4S          1.42022
  37        4PX         0.68511
  38        4PY        -0.12563
  39        4PZ         0.04668
  40 4   C  1S          1.98703
  41        2S          0.39622
  42        2PX         0.58831
  43        2PY         0.61885
  44        2PZ         0.44675
  45        3S          0.95583
  46        3PX         0.40025
  47        3PY         0.29499
  48        3PZ         0.54246
  49        4S          0.07071
  50        4PX         0.34136
  51        4PY         0.12093
  52        4PZ         0.04183
  53 5   C  1S          1.98716
  54        2S          0.39668
  55        2PX         0.59699
  56        2PY         0.61946
  57        2PZ         0.44622
  58        3S          0.95874
  59        3PX         0.40791
  60        3PY         0.28287
  61        3PZ         0.54236
  62        4S         -0.70841
  63        4PX        -0.22502
  64        4PY         0.16401
  65        4PZ         0.03454
  66 6   C  1S          1.98763
  67        2S          0.39214
  68        2PX         0.60005
  69        2PY         0.59887
  70        2PZ         0.44133
  71        3S          1.01650
  72        3PX         0.27448
  73        3PY         0.43399
  74        3PZ         0.53076
  75        4S          2.35825
  76        4PX        -0.94417
  77        4PY         0.24753
  78        4PZ         0.05838
  79 7   C  1S          1.98759
  80        2S          0.38359
  81        2PX         0.57143
  82        2PY         0.59274
  83        2PZ         0.48817
  84        3S          1.01334
  85        3PX         0.27482
  86        3PY         0.41596
  87        3PZ         0.59187
  88        4S          0.58418
  89        4PX         0.12268
  90        4PY        -0.12332
  91        4PZ         0.06415
  92 8   C  1S          1.98732
  93        2S          0.39281
  94        2PX         0.60391
  95        2PY         0.56165
  96        2PZ         0.46789
  97        3S          0.93774
  98        3PX         0.35076
  99        3PY         0.18969
 100        3PZ         0.54161
 101        4S         -0.02988
 102        4PX        -0.06216
 103        4PY        -0.09842
 104        4PZ         0.04663
 105 9   H  1S          0.47732
 106        2S          0.29082
 107 10  H  1S          0.47887
 108        2S          0.28674
 109 11  H  1S          0.47913
 110        2S          0.28619
 111 12  H  1S          0.47815
 112        2S          0.27970
 113 13  H  1S          0.47595
 114        2S          0.28885
 115 14  H  1S          0.47393
 116        2S          0.28777
 117 15  N  1S          1.98745
 118        2S          0.36966
 119        2PX         0.59596
 120        2PY         0.61280
 121        2PZ         0.70840
 122        3S          1.38065
 123        3PX         0.61832
 124        3PY         0.63080
 125        3PZ         0.84426
 126        4S         -0.46969
 127        4PX        -0.18332
 128        4PY        -0.20223
 129        4PZ         0.06929
 130 16  H  1S          0.44858
 131        2S          0.12272
          Condensed to atoms (all electrons):
               1          2          3          4          5          6
     1  C  139.279691 -76.180227 -38.566742 -10.299512   4.305115   3.498037
     2  C  -76.180227  93.218165  -7.618964   5.583425  -9.918531  -4.060226
     3  C  -38.566742  -7.618964  67.310277  -6.400254   8.487411 -28.315846
     4  C  -10.299512   5.583425  -6.400254  13.899426  -3.731142   9.871592
     5  C    4.305115  -9.918531   8.487411  -3.731142  12.016180  -7.695485
     6  C    3.498037  -4.060226 -28.315846   9.871592  -7.695485  55.366364
     7  C  -45.507916  19.944718  22.597213  -2.805712   2.050605 -25.968162
     8  C   13.825440  -5.121386  -6.718960   0.467680  -0.567212   4.521454
     9  H   -0.124680  -0.076819   0.403817   0.129203  -0.017522  -0.004779
    10  H    0.037995  -0.060818   0.071389   0.214485   0.128567  -0.070832
    11  H    0.001597  -0.012704  -0.011996   0.096321   0.232344   0.002770
    12  H    0.082253  -0.046288   0.016639  -0.046493   0.098132   0.217794
    13  H   -0.018776   0.035028   0.017781  -0.001579  -0.003068  -0.060928
    14  H   -0.209620   0.172462   0.046916   0.000676   0.000110  -0.014295
    15  N    7.136004  -4.729527  -2.950294  -0.166063   0.120201   0.687680
    16  H    0.117489  -0.088567  -0.062871  -0.006549  -0.002195   0.020610
               7          8          9         10         11         12
     1  C  -45.507916  13.825440  -0.124680   0.037995   0.001597   0.082253
     2  C   19.944718  -5.121386  -0.076819  -0.060818  -0.012704  -0.046288
     3  C   22.597213  -6.718960   0.403817   0.071389  -0.011996   0.016639
     4  C   -2.805712   0.467680   0.129203   0.214485   0.096321  -0.046493
     5  C    2.050605  -0.567212  -0.017522   0.128567   0.232344   0.098132
     6  C  -25.968162   4.521454  -0.004779  -0.070832   0.002770   0.217794
     7  C   50.633495 -12.032310   0.025949   0.006331   0.015954   0.001226
     8  C  -12.032310  10.218939  -0.008377  -0.000688  -0.000390   0.001183
     9  H    0.025949  -0.008377   0.441507  -0.002409  -0.000021   0.000001
    10  H    0.006331  -0.000688  -0.002409   0.446026  -0.003550  -0.000025
    11  H    0.015954  -0.000390  -0.000021  -0.003550   0.447273  -0.002503
    12  H    0.001226   0.001183   0.000001  -0.000025  -0.002503   0.436708
    13  H    0.370494  -0.014694   0.000000   0.000000   0.000000   0.000399
    14  H    0.116653   0.309528   0.000001   0.000000   0.000000   0.000000
    15  N   -2.432202   0.989027   0.001891  -0.000858   0.000235  -0.001183
    16  H   -0.049150   0.020335   0.000378   0.000000   0.000000   0.000001
              13         14         15         16
     1  C   -0.018776  -0.209620   7.136004   0.117489
     2  C    0.035028   0.172462  -4.729527  -0.088567
     3  C    0.017781   0.046916  -2.950294  -0.062871
     4  C   -0.001579   0.000676  -0.166063  -0.006549
     5  C   -0.003068   0.000110   0.120201  -0.002195
     6  C   -0.060928  -0.014295   0.687680   0.020610
     7  C    0.370494   0.116653  -2.432202  -0.049150
     8  C   -0.014694   0.309528   0.989027   0.020335
     9  H    0.000000   0.000001   0.001891   0.000378
    10  H    0.000000   0.000000  -0.000858   0.000000
    11  H    0.000000   0.000000   0.000235   0.000000
    12  H    0.000399   0.000000  -0.001183   0.000001
    13  H    0.429477  -0.001080   0.011794  -0.000039
    14  H   -0.001080   0.418712  -0.077087  -0.001279
    15  N    0.011794  -0.077087   8.036331   0.336402
    16  H   -0.000039  -0.001279   0.336402   0.286736
 Mulliken charges:
               1
     1  C    8.623852
     2  C   -5.039741
     3  C   -2.305514
     4  C   -0.805503
     5  C    0.496489
     6  C   -1.995748
     7  C   -0.967186
     8  C    0.110430
     9  H    0.231861
    10  H    0.234385
    11  H    0.234670
    12  H    0.242157
    13  H    0.235193
    14  H    0.238303
    15  N    0.037651
    16  H    0.428700
 Sum of Mulliken charges =   0.00000
 Mulliken charges with hydrogens summed into heavy atoms:
               1
     1  C    8.623852
     2  C   -5.039741
     3  C   -2.073654
     4  C   -0.571118
     5  C    0.731159
     6  C   -1.753591
     7  C   -0.731993
     8  C    0.348734
    15  N    0.466350
 Electronic spatial extent (au):  <R**2>=           1036.3586
 Charge=              0.0000 electrons
 Dipole moment (field-independent basis, Debye):
    X=              1.3817    Y=             -1.6397    Z=              0.0000  Tot=              2.1442
 Quadrupole moment (field-independent basis, Debye-Ang):
   XX=            -45.4491   YY=            -45.1783   ZZ=            -61.2234
   XY=             -3.5847   XZ=              0.0000   YZ=              0.0000
 Traceless Quadrupole moment (field-independent basis, Debye-Ang):
   XX=              5.1679   YY=              5.4386   ZZ=            -10.6065
   XY=             -3.5847   XZ=              0.0000   YZ=              0.0000
 Octapole moment (field-independent basis, Debye-Ang**2):
  XXX=             16.8666  YYY=            -10.8326  ZZZ=              0.0000  XYY=              6.4528
  XXY=             -8.8901  XXZ=              0.0000  XZZ=              1.8149  YZZ=             -2.2446
  YYZ=              0.0000  XYZ=              0.0000
 Hexadecapole moment (field-independent basis, Debye-Ang**3):
 XXXX=           -838.8747 YYYY=           -378.2656 ZZZZ=            -78.4783 XXXY=            -25.2573
 XXXZ=              0.0001 YYYX=            -21.3654 YYYZ=              0.0000 ZZZX=              0.0000
 ZZZY=              0.0000 XXYY=           -206.1236 XXZZ=           -201.7723 YYZZ=            -99.1211
 XXYZ=              0.0000 YYXZ=              0.0000 ZZXY=             -4.9871
 N-N= 3.952306611961D+02 E-N=-1.628014097488D+03  KE= 3.582777954726D+02
 Orbital energies and kinetic energies (alpha):
                                 1                 2
   1         O               -14.317077         21.840481
   2         O               -10.178249         15.810558
   3         O               -10.176291         15.810678
   4         O               -10.147799         15.813556
   5         O               -10.140960         15.811121
   6         O               -10.139806         15.814559
   7         O               -10.137452         15.809060
   8         O               -10.133211         15.810881
   9         O               -10.127002         15.812908
  10         O                -0.990234          1.833183
  11         O                -0.849454          1.549075
  12         O                -0.784376          1.602842
  13         O                -0.750819          1.672866
  14         O                -0.718338          1.635385
  15         O                -0.639985          1.473347
  16         O                -0.604884          1.501099
  17         O                -0.588989          1.464644
  18         O                -0.553058          1.276021
  19         O                -0.493137          1.428113
  20         O                -0.485447          1.248942
  21         O                -0.454147          1.455940
  22         O                -0.447364          1.294254
  23         O                -0.426336          1.094241
  24         O                -0.417026          1.330933
  25         O                -0.407186          1.409551
  26         O                -0.363472          1.440910
  27         O                -0.358214          1.450323
  28         O                -0.342103          1.075573
  29         O                -0.279925          1.102391
  30         O                -0.242526          1.217663
  31         O                -0.203078          1.247797
  32         V                -0.032640          1.270015
  33         V                -0.004125          0.377493
  34         V                 0.013652          1.360089
  35         V                 0.014642          0.316594
  36         V                 0.021438          0.294659
  37         V                 0.034920          0.346158
  38         V                 0.036677          0.283583
  39         V                 0.038199          1.045595
  40         V                 0.059024          0.325931
  41         V                 0.062482          0.335633
  42         V                 0.064496          0.292907
  43         V                 0.066831          0.317945
  44         V                 0.086478          0.367410
  45         V                 0.089142          0.361651
  46         V                 0.105589          0.303362
  47         V                 0.106389          0.298280
  48         V                 0.112993          0.327955
  49         V                 0.127727          0.474617
  50         V                 0.135015          0.517492
  51         V                 0.140607          0.406213
  52         V                 0.151906          0.458607
  53         V                 0.156982          0.443201
  54         V                 0.163570          0.532498
  55         V                 0.164455          0.823807
  56         V                 0.175627          0.679006
  57         V                 0.178187          1.103934
  58         V                 0.187228          0.866281
  59         V                 0.189154          0.738863
  60         V                 0.198344          0.748511
  61         V                 0.200358          0.581941
  62         V                 0.202870          0.747756
  63         V                 0.205200          0.853090
  64         V                 0.219039          0.801457
  65         V                 0.219418          0.826391
  66         V                 0.232828          0.852538
  67         V                 0.238923          0.704879
  68         V                 0.239574          0.582742
  69         V                 0.245828          0.932418
  70         V                 0.258007          0.913500
  71         V                 0.265441          0.883688
  72         V                 0.271812          0.742673
  73         V                 0.280296          1.015830
  74         V                 0.284453          0.938942
  75         V                 0.297819          1.386418
  76         V                 0.307622          1.087867
  77         V                 0.309941          1.415146
  78         V                 0.328488          1.110070
  79         V                 0.340513          1.366156
  80         V                 0.351525          1.587954
  81         V                 0.363364          1.587558
  82         V                 0.378214          1.804585
  83         V                 0.403054          1.665902
  84         V                 0.421585          2.086410
  85         V                 0.465239          2.053464
  86         V                 0.522705          2.610872
  87         V                 0.588079          2.509775
  88         V                 0.623704          3.004045
  89         V                 0.821599          2.512242
  90         V                 0.823490          2.588843
  91         V                 0.852226          2.593317
  92         V                 0.855285          2.836677
  93         V                 0.864409          2.752617
  94         V                 0.876672          2.569868
  95         V                 0.884174          2.638323
  96         V                 0.888977          2.624564
  97         V                 0.901989          2.808626
  98         V                 0.902783          2.651028
  99         V                 0.918212          2.654042
 100         V                 0.920567          2.869389
 101         V                 0.934193          2.649791
 102         V                 0.958858          2.817255
 103         V                 0.995677          2.616440
 104         V                 1.028844          3.001827
 105         V                 1.061556          3.018809
 106         V                 1.064001          3.067946
 107         V                 1.109345          3.012270
 108         V                 1.141133          2.953867
 109         V                 1.164379          2.863007
 110         V                 1.183256          2.907626
 111         V                 1.193576          3.108654
 112         V                 1.270748          2.979583
 113         V                 1.280109          3.804494
 114         V                 1.292836          2.922481
 115         V                 1.308865          2.805334
 116         V                 1.375206          2.939124
 117         V                 1.427727          2.832608
 118         V                 1.513031          2.797458
 119         V                 1.543138          3.206683
 120         V                 1.574602          2.943559
 121         V                 1.624502          3.404269
 122         V                 1.656510          3.181918
 123         V                 1.806288          3.322002
 124         V                 1.817463          3.307773
 125         V                 1.867291          3.652776
 126         V                 1.908728          3.434728
 127         V                 1.985473          3.377463
 128         V                 2.061077          3.489463
 129         V                 2.129348          3.551623
 130         V                 2.462904          3.679892
 131         V                 2.854940          5.072319
 Total kinetic energy from orbitals= 3.582777954726D+02
 1|1|UNPC-WKENNERL-10856|FOpt|RB3LYP TD-FC|3-21+G|C8H7N1|CWALDT|07-Jun-
 2021|0||# opt td b3lyp/3-21+g geom=connectivity pop=full||Title Card R
 equired||0,1|C,-1.8183383237,0.5746634879,-0.0007246847|C,-0.416233965
 3,0.6271556474,-0.0041871523|C,0.3388639904,1.8141262196,0.0039294271|
 C,-0.4587451038,3.0292298498,0.0166237721|C,-1.8453916861,3.005523253,
 0.0202912592|C,-2.5902271353,1.7792152707,0.0118072986|C,-2.1904275338
 ,-0.8181227685,-0.0116830323|C,-0.9896436886,-1.6103555631,-0.02186204
 94|H,1.4205936615,1.8374938298,0.0011099451|H,0.0599495616,3.983124190
 9,0.0233926959|H,-2.3890202444,3.945399069,0.0299060011|H,-3.672831177
 2,1.7656549699,0.0147135265|H,-3.192127939,-1.2214732204,-0.0123605302
 |H,-0.8577485211,-2.6801838235,-0.0314468795|N,0.0479921639,-0.7320869
 712,-0.0171927915|H,1.0297146108,-0.9923489613,-0.0221758657||Version=
 EM64W-G09RevD.01|State=1-A|HF=-361.8464297|RMSD=5.839e-009|RMSF=9.418e
 -005|Dipole=0.5245221,-1.9296557,-0.0180871|PG=C01 [X(C8H7N1)]||@


 ERROR IS A HARDY PLANT... IT FLOURISHETH IN EVERY SOIL.
            MARTIN FARQUHAR TUPPER
 Job cpu time:       0 days  1 hours 24 minutes 26.0 seconds.
 File lengths (MBytes):  RWF=     34 Int=      0 D2E=      0 Chk=      5 Scr=      1
 Normal termination of Gaussian 09 at Mon Jun 07 11:27:31 2021.
